 vasp.5.3.3 18Dez12 (build May 12 2016 12:04:25) complex                        
  
 executed on             LinuxIFC date 2017.03.09  11:47:46
 running on   16 total cores
 distrk:  each k-point on   16 cores,    1 groups
 distr:  one band on NCORES_PER_BAND=   2 cores,    8 groups


--------------------------------------------------------------------------------------------------------


 INCAR:
 POTCAR:    PAW_PBE Mn 06Sep2000                  
 POTCAR:    PAW_PBE O 08Apr2002                   
 POTCAR:    PAW_PBE Li 17Jan2003                  
 POTCAR:    PAW_PBE Mn 06Sep2000                  
  local pseudopotential read in
  partial core-charges read in
  partial kinetic energy density read in
  atomic valenz-charges read in
  non local Contribution for L=           2  read in
    real space projection operators read in
  non local Contribution for L=           2  read in
    real space projection operators read in
  non local Contribution for L=           0  read in
    real space projection operators read in
  non local Contribution for L=           0  read in
    real space projection operators read in
  non local Contribution for L=           1  read in
    real space projection operators read in
  non local Contribution for L=           1  read in
    real space projection operators read in
    PAW grid and wavefunctions read in
 
   number of l-projection  operators is LMAX  =           6
   number of lm-projection operators is LMMAX =          18
 
 POTCAR:    PAW_PBE O 08Apr2002                   
  local pseudopotential read in
  partial core-charges read in
  partial kinetic energy density read in
  kinetic energy density of atom read in
  atomic valenz-charges read in
  non local Contribution for L=           0  read in
    real space projection operators read in
  non local Contribution for L=           0  read in
    real space projection operators read in
  non local Contribution for L=           1  read in
    real space projection operators read in
  non local Contribution for L=           1  read in
    real space projection operators read in
    PAW grid and wavefunctions read in
 
   number of l-projection  operators is LMAX  =           4
   number of lm-projection operators is LMMAX =           8
 
 POTCAR:    PAW_PBE Li 17Jan2003                  
  local pseudopotential read in
  partial core-charges read in
  partial kinetic energy density read in
  atomic valenz-charges read in
  non local Contribution for L=           0  read in
    real space projection operators read in
  non local Contribution for L=           0  read in
    real space projection operators read in
  non local Contribution for L=           1  read in
    real space projection operators read in
    PAW grid and wavefunctions read in
 
   number of l-projection  operators is LMAX  =           3
   number of lm-projection operators is LMMAX =           5
 

 ----------------------------------------------------------------------------- 
|                                                                             |
|  ADVICE TO THIS USER RUNNING 'VASP/VAMP'   (HEAR YOUR MASTER'S VOICE ...):  |
|                                                                             |
|      You have a (more or less) 'large supercell' and for larger cells       |
|      it might be more efficient to use real space projection opertators     |
|      So try LREAL= Auto  in the INCAR   file.                               |
|      Mind: At the moment your POTCAR file does not contain real space       |
|       projectors, and has to be modified,  BUT if you                       |
|      want to do an extremely  accurate calculation you might also keep the  |
|      reciprocal projection scheme          (i.e. LREAL=.FALSE.)             |
|                                                                             |
 ----------------------------------------------------------------------------- 

  PAW_PBE Mn 06Sep2000                  :
 energy of atom  1       EATOM= -416.7541
 kinetic energy error for atom=    0.0024 (will be added to EATOM!!)
  PAW_PBE O 08Apr2002                   :
 energy of atom  2       EATOM= -432.3788
 kinetic energy error for atom=    0.0208 (will be added to EATOM!!)
  PAW_PBE Li 17Jan2003                  :
 energy of atom  3       EATOM=   -5.3001
 kinetic energy error for atom=    0.0000 (will be added to EATOM!!)
 
 
 POSCAR:                                         
  positions in direct lattice
  velocities in cartesian coordinates
 exchange correlation table for  LEXCH =        8
   RHO(1)=    0.500       N(1)  =     2000
   RHO(2)=  100.500       N(2)  =     4000
 


--------------------------------------------------------------------------------------------------------


 ion  position               nearest neighbor table
   1  0.250  0.002  0.137-  16 1.92  16 1.92  23 1.97  23 1.97  20 2.25   9 2.38  25 2.54   6 3.16
                             6 3.16
   2  0.250  0.525  0.135-  24 1.92  24 1.92  15 1.96  15 1.96  10 2.16  19 2.30  25 3.07
   3  0.250  0.233  0.617-  11 1.91  13 1.92  13 1.92  17 1.96  21 1.98  21 1.98  27 2.88  27 2.88
                             7 3.01   7 3.01  28 3.24  28 3.24
   4  0.250  0.725  0.628-  12 1.90  14 1.92  14 1.92  22 1.96  22 1.96  18 1.97  28 2.96  28 2.96
                             8 3.01   8 3.01  27 3.21  27 3.21
   5  0.750  0.479  0.851-  19 1.92  19 1.92  12 1.97  12 1.97  13 2.25  24 2.29  26 3.07  27 3.10

   6  0.750  0.002  0.849-  11 1.94  11 1.94  20 1.96  20 1.96  23 2.22  14 2.41  26 2.53  28 3.08
                             1 3.16   1 3.16
   7  0.750  0.276  0.348-  15 1.89   9 1.89   9 1.89  21 1.99  17 2.01  17 2.01  27 2.74   3 3.01
                             3 3.01
   8  0.750  0.765  0.358-  10 1.90  10 1.90  16 1.90  22 1.97  18 2.05  18 2.05  28 2.78   4 3.01
                             4 3.01
   9  0.250  0.192  0.264-   7 1.89   7 1.89  25 2.09   1 2.38
  10  0.250  0.676  0.280-   8 1.90   8 1.90   2 2.16
  11  0.250  0.088  0.749-   3 1.91   6 1.94   6 1.94
  12  0.250  0.580  0.759-   4 1.90   5 1.97   5 1.97
  13  0.750  0.327  0.693-   3 1.92   3 1.92  27 2.04   5 2.25
  14  0.750  0.816  0.709-   4 1.92   4 1.92  28 2.20  26 2.21   6 2.41
  15  0.750  0.420  0.219-   7 1.89   2 1.96   2 1.96
  16  0.750  0.908  0.227-   8 1.90   1 1.92   1 1.92
  17  0.250  0.358  0.457-   3 1.96  27 2.00  27 2.00   7 2.01   7 2.01
  18  0.250  0.851  0.469-   4 1.97  28 2.01  28 2.01   8 2.05   8 2.05
  19  0.250  0.396  0.950-  25 1.84   5 1.92   5 1.92   2 2.30
  20  0.250  0.900  0.939-   6 1.96   6 1.96  26 2.03  26 2.03   1 2.25
  21  0.750  0.152  0.513-  28 1.92   3 1.98   3 1.98   7 1.99
  22  0.750  0.646  0.525-  27 1.85   4 1.96   4 1.96   8 1.97
  23  0.750  0.103  0.045-   1 1.97   1 1.97  25 2.04  25 2.04   6 2.22
  24  0.750  0.607  0.034-  26 1.84   2 1.92   2 1.92   5 2.29
  25  0.250  0.241  0.053-  19 1.84  23 2.04  23 2.04   9 2.09   1 2.54   2 3.07
  26  0.750  0.763  0.931-  24 1.84  20 2.03  20 2.03  14 2.21   6 2.53   5 3.07
  27  0.750  0.466  0.534-  22 1.85  17 2.00  17 2.00  13 2.04   7 2.74   3 2.88   3 2.88   5 3.10
                             4 3.21   4 3.21
  28  0.750  0.966  0.538-  21 1.92  18 2.01  18 2.01  14 2.20   8 2.78   4 2.96   4 2.96   6 3.08
                             3 3.24   3 3.24
 
  LATTYP: Found a simple monoclinic cell.
 ALAT       =    14.5773650108
 B/A-ratio  =     0.1993174909
 C/A-ratio  =     1.5955025466
 COS(beta)  =    -0.9554966738
  
  Lattice vectors:
  
 A1 = ( -10.0417276160,   0.0000000000, -10.5670846094)
 A2 = (   0.0000000000,  -2.9055238181,   0.0000000000)
 A3 = (  10.3349117196,   0.0000000000,  20.8358953909)


Analysis of symmetry for initial positions (statically):
=====================================================================
 Subroutine PRICEL returns:
 Original cell was already a primitive cell.
 

 Routine SETGRP: Setting up the symmetry group for a 
 simple monoclinic supercell.


 Subroutine GETGRP returns: Found  2 space group operations
 (whereof  1 operations were pure point group operations)
 out of a pool of  4 trial point group operations.


The static configuration has the point symmetry C_1 .
 The point group associated with its full space group is C_1h.


Analysis of symmetry for dynamics (positions and initial velocities):
=====================================================================
 Subroutine PRICEL returns:
 Original cell was already a primitive cell.
 

 Routine SETGRP: Setting up the symmetry group for a 
 simple monoclinic supercell.


 Subroutine GETGRP returns: Found  2 space group operations
 (whereof  1 operations were pure point group operations)
 out of a pool of  4 trial point group operations.


The dynamic configuration has the point symmetry C_1 .
 The point group associated with its full space group is C_1h.


Analysis of magnetic symmetry:
=====================================================================

 Subroutine MAGSYM returns: Found  2 space group operations
 (whereof  1 operations were pure point group operations)
 out of a pool of  2 trial space group operations
 (whereof  1 operations were pure point group operations)
 and found also     1 'primitive' translations


The magnetic configuration has the point symmetry C_1 .
 The point group associated with its full space group is C_1h.


 irot  :   1
 --------------------------------------------------------------------
 isymop:   1   0   0
           0   1   0
           0   0   1

 gtrans:     0.0000000     0.0000000     0.0000000

 ptrans:     0.0000000     0.0000000     0.0000000
 rotmap:
 (   1->   1)  (   2->   2)  (   3->   3)  (   4->   4)  (   5->   5) 
 (   6->   6)  (   7->   7)  (   8->   8)  (   9->   9)  (  10->  10) 
 (  11->  11)  (  12->  12)  (  13->  13)  (  14->  14)  (  15->  15) 
 (  16->  16)  (  17->  17)  (  18->  18)  (  19->  19)  (  20->  20) 
 (  21->  21)  (  22->  22)  (  23->  23)  (  24->  24)  (  25->  25) 
 (  26->  26)  (  27->  27)  (  28->  28) 


 irot  :   2
 --------------------------------------------------------------------
 isymop:  -1   0   0
           0   1   0
           0   0   1

 gtrans:    -0.5000000     0.0000000     0.0000000

 ptrans:     0.0000000     0.0000000     0.0000000
 rotmap:
 (   1->   1)  (   2->   2)  (   3->   3)  (   4->   4)  (   5->   5) 
 (   6->   6)  (   7->   7)  (   8->   8)  (   9->   9)  (  10->  10) 
 (  11->  11)  (  12->  12)  (  13->  13)  (  14->  14)  (  15->  15) 
 (  16->  16)  (  17->  17)  (  18->  18)  (  19->  19)  (  20->  20) 
 (  21->  21)  (  22->  22)  (  23->  23)  (  24->  24)  (  25->  25) 
 (  26->  26)  (  27->  27)  (  28->  28) 
 
 
 KPOINTS: con1.16                                 

Automatic generation of k-mesh.
Space group operators:
 irot       det(A)        alpha          n_x          n_y          n_z        tau_x        tau_y        tau_z
    1     1.000000     0.000000     1.000000     0.000000     0.000000     0.000000     0.000000     0.000000
    2    -1.000000   180.000000     0.000000     1.000000     0.000000    -0.500000     0.000000     0.000000
 
 Subroutine IBZKPT returns following result:
 ===========================================
 
 Found     16 irreducible k-points:
 
 Following reciprocal coordinates:
            Coordinates               Weight
  0.000000  0.000000  0.000000      1.000000
  0.142857  0.000000  0.000000      2.000000
  0.285714  0.000000  0.000000      2.000000
  0.428571  0.000000  0.000000      2.000000
  0.000000  0.500000 -0.000000      1.000000
  0.142857  0.500000 -0.000000      2.000000
  0.285714  0.500000 -0.000000      2.000000
  0.428571  0.500000 -0.000000      2.000000
  0.000000  0.000000  0.500000      1.000000
  0.142857  0.000000  0.500000      2.000000
  0.285714  0.000000  0.500000      2.000000
  0.428571  0.000000  0.500000      2.000000
  0.000000  0.500000  0.500000      1.000000
  0.142857  0.500000  0.500000      2.000000
  0.285714  0.500000  0.500000      2.000000
  0.428571  0.500000  0.500000      2.000000
 
 Following cartesian coordinates:
            Coordinates               Weight
  0.000000  0.000000  0.000000      1.000000
  0.000000  0.049167  0.000000      2.000000
  0.000000  0.098335  0.000000      2.000000
  0.000000  0.147502  0.000000      2.000000
 -0.001491  0.000000  0.048734      1.000000
 -0.001491  0.049167  0.048734      2.000000
 -0.001491  0.098335  0.048734      2.000000
 -0.001491  0.147502  0.048734      2.000000
  0.051335  0.000000 -0.001466      1.000000
  0.051335  0.049167 -0.001466      2.000000
  0.051335  0.098335 -0.001466      2.000000
  0.051335  0.147502 -0.001466      2.000000
  0.049843  0.000000  0.047268      1.000000
  0.049843  0.049167  0.047268      2.000000
  0.049843  0.098335  0.047268      2.000000
  0.049843  0.147502  0.047268      2.000000
 
 TETIRR: Found     84 inequivalent tetrahedra from      168


--------------------------------------------------------------------------------------------------------




 Dimension of arrays:
   k-points           NKPTS =     16   k-points in BZ     NKDIM =     16   number of bands    NBANDS=     96
   number of dos      NEDOS =    301   number of ions     NIONS =     28
   non local maximal  LDIM  =      6   non local SUM 2l+1 LMDIM =     18
   total plane-waves  NPLWV =  51840
   max r-space proj   IRMAX =      1   max aug-charges    IRDMAX=   6757
   dimension x,y,z NGX =    16 NGY =   60 NGZ =   54
   dimension x,y,z NGXF=    32 NGYF=  120 NGZF=  108
   support grid    NGXF=    32 NGYF=  120 NGZF=  108
   ions per type =               8  16   4
 NGX,Y,Z   is equivalent  to a cutoff of   9.15,  9.71,  9.20 a.u.
 NGXF,Y,Z  is equivalent  to a cutoff of  18.31, 19.42, 18.41 a.u.


 I would recommend the setting:
   dimension x,y,z NGX =    16 NGY =   57 NGZ =   54
 SYSTEM =  unknown system                          
 POSCAR =                                          

 Startparameter for this run:
   NWRITE =      1    write-flag & timer
   PREC   = normal    normal or accurate (medium, high low for compatibility)
   ISTART =      1    job   : 0-new  1-cont  2-samecut
   ICHARG =     11    charge: 1-file 2-atom 10-const
   ISPIN  =      2    spin polarized calculation?
   LNONCOLLINEAR =      F non collinear calculations
   LSORBIT =      F    spin-orbit coupling
   INIWAV =      1    electr: 0-lowe 1-rand  2-diag
   LASPH  =      F    aspherical Exc in radial PAW
   METAGGA=      F    non-selfconsistent MetaGGA calc.

 Electronic Relaxation 1
   ENCUT  =  520.0 eV  38.22 Ry    6.18 a.u.   5.40 19.10 18.13*2*pi/ulx,y,z
   ENINI  =  520.0     initial cutoff
   ENAUG  =  605.4 eV  augmentation charge cutoff
   NELM   =     60;   NELMIN=  5; NELMDL=  0     # of ELM steps 
   EDIFF  = 0.1E-04   stopping-criterion for ELM
   LREAL  =      F    real-space projection
   NLSPLINE    = F    spline interpolate recip. space projectors
   LCOMPAT=      F    compatible to vasp.4.4
   GGA_COMPAT  = T    GGA compatible to vasp.4.4-vasp.4.6
   LMAXPAW     = -100 max onsite density
   LMAXMIX     =    4 max onsite mixed and CHGCAR
   VOSKOWN=      1    Vosko Wilk Nusair interpolation
   ROPT   =    0.00000   0.00000   0.00000
 Ionic relaxation
   EDIFFG = -.2E-01   stopping-criterion for IOM
   NSW    =      0    number of steps for IOM
   NBLOCK =      1;   KBLOCK =      1    inner block; outer block 
   IBRION =     -1    ionic relax: 0-MD 1-quasi-New 2-CG
   NFREE  =      0    steps in history (QN), initial steepest desc. (CG)
   ISIF   =      2    stress and relaxation
   IWAVPR =     10    prediction:  0-non 1-charg 2-wave 3-comb
   ISYM   =      2    0-nonsym 1-usesym 2-fastsym
   LCORR  =      T    Harris-Foulkes like correction to forces

   POTIM  = 0.5000    time-step for ionic-motion
   TEIN   =    0.0    initial temperature
   TEBEG  =    0.0;   TEEND  =   0.0 temperature during run
   SMASS  =  -3.00    Nose mass-parameter (am)
   estimated Nose-frequenzy (Omega)   =  0.10E-29 period in steps =****** mass=  -0.193E-27a.u.
   SCALEE = 1.0000    scale energy and forces
   NPACO  =    256;   APACO  = 16.0  distance and # of slots for P.C.
   PSTRESS=    0.0 pullay stress

  Mass of Ions in am
   POMASS =  54.94 16.00  7.01
  Ionic Valenz
   ZVAL   =   7.00  6.00  1.00
  Atomic Wigner-Seitz radii
   RWIGS  =  -1.00 -1.00 -1.00
  virtual crystal weights 
   VCA    =   1.00  1.00  1.00
   NELECT =     156.0000    total number of electrons
   NUPDOWN=      -1.0000    fix difference up-down

 DOS related values:
   EMIN   =  10.00;   EMAX   =-10.00  energy-range for DOS
   EFERMI =   0.00
   ISMEAR =    -5;   SIGMA  =   0.20  broadening in eV -4-tet -1-fermi 0-gaus

 Electronic relaxation 2 (details)
   IALGO  =     38    algorithm
   LDIAG  =      T    sub-space diagonalisation (order eigenvalues)
   LSUBROT=      T    optimize rotation matrix (better conditioning)
   TURBO    =      0    0=normal 1=particle mesh
   IRESTART =      0    0=no restart 2=restart with 2 vectors
   NREBOOT  =      0    no. of reboots
   NMIN     =      0    reboot dimension
   EREF     =   0.00    reference energy to select bands
   IMIX   =      4    mixing-type and parameters
     AMIX     =   0.40;   BMIX     =  1.00
     AMIX_MAG =   1.60;   BMIX_MAG =  1.00
     AMIN     =   0.10
     WC   =   100.;   INIMIX=   1;  MIXPRE=   1;  MAXMIX= -45

 Intra band minimization:
   WEIMIN = 0.0000     energy-eigenvalue tresh-hold
   EBREAK =  0.26E-07  absolut break condition
   DEPER  =   0.30     relativ break condition  

   TIME   =   0.40     timestep for ELM

  volume/ion in A,a.u.               =      10.38        70.04
  Fermi-wavevector in a.u.,A,eV,Ry     =   1.330500  2.514280 24.085433  1.770229
  Thomas-Fermi vector in A             =   2.459582
 
 Write flags
   LWAVE  =      T    write WAVECAR
   LCHARG =      T    write CHGCAR
   LVTOT  =      F    write LOCPOT, total local potential
   LVHAR  =      F    write LOCPOT, Hartree potential only
   LELF   =      F    write electronic localiz. function (ELF)
   LORBIT =     11    0 simple, 1 ext, 2 COOP (PROOUT)


 Dipole corrections
   LMONO  =      F    monopole corrections only (constant potential shift)
   LDIPOL =      F    correct potential (dipole corrections)
   IDIPOL =      0    1-x, 2-y, 3-z, 4-all directions 
   EPSILON=  1.0000000 bulk dielectric constant

 LDA+U is selected, type is set to LDAUTYPE =  2
   angular momentum for each species LDAUL =     2   -1   -1
   U (eV)           for each species LDAUU =   3.9  0.0  0.0
   J (eV)           for each species LDAUJ =   0.0  0.0  0.0
 Exchange correlation treatment:
   GGA     =    --    GGA type
   LEXCH   =     8    internal setting for exchange type
   VOSKOWN=      1    Vosko Wilk Nusair interpolation
   LHFCALC =     F    Hartree Fock is set to
   LHFONE  =     F    Hartree Fock one center treatment
   AEXX    =    0.0000 exact exchange contribution

 Linear response parameters
   LEPSILON=     F    determine dielectric tensor
   LRPA    =     F    only Hartree local field effects (RPA)
   LNABLA  =     F    use nabla operator in PAW spheres
   LVEL    =     F    velocity operator in full k-point grid
   LINTERFAST=   F  fast interpolation
   KINTER  =     0    interpolate to denser k-point grid
   CSHIFT  =0.1000    complex shift for real part using Kramers Kronig
   OMEGAMAX=  -1.0    maximum frequency
   DEG_THRESHOLD= 0.2000000E-02 threshold for treating states as degnerate
   RTIME   =    0.100 relaxation time in fs

 Orbital magnetization related:
   ORBITALMAG=     F  switch on orbital magnetization
   LCHIMAG   =     F  perturbation theory with respect to B field
   DQ        =  0.001000  dq finite difference perturbation B field



--------------------------------------------------------------------------------------------------------


 Static calculation
 charge density and potential remain constant during run
 spin polarized calculation
 Variant of blocked Davidson
 Davidson routine will perform the subspace rotation
 perform sub-space diagonalisation
    after iterative eigenvector-optimisation
 no mixing
 using additional bands           18
 reciprocal scheme for non local part
 use partial core corrections
 calculate Harris-corrections to forces 
   (improved forces if not selfconsistent)
 use gradient corrections 
 WARNING: stress and forces are not correct
  (second derivative of E(xc) not defined)
 use of overlap-Matrix (Vanderbilt PP)
 Fermi weights with tetrahedron method with Bloechl corrections


--------------------------------------------------------------------------------------------------------


  energy-cutoff  :      520.00
  volume of cell :      290.61
      direct lattice vectors                 reciprocal lattice vectors
     0.000000000  2.905523818  0.000000000     0.000000000  0.344172019  0.000000000
     0.293184104  0.000000000 10.268810781    -0.002982187  0.000000000  0.097467404
     9.748543512  0.000000000  0.298273828     0.102669114  0.000000000 -0.002931299

  length of vectors
     2.905523818 10.272995268  9.753105551     0.344172019  0.097513016  0.102710952


 
 old parameters found on file WAVECAR:
  energy-cutoff  :      520.00
  volume of cell :      290.61
      direct lattice vectors                 reciprocal lattice vectors
     0.000000000  2.905523818  0.000000000     0.000000000  0.344172019  0.000000000
     0.293184104  0.000000000 10.268810781    -0.002982187  0.000000000  0.097467404
     9.748543512  0.000000000  0.298273828     0.102669114  0.000000000 -0.002931299

  length of vectors

 
 k-points in units of 2pi/SCALE and weight: con1.16                                 
   0.00000000  0.00000000  0.00000000       0.036
   0.00000000  0.04916743  0.00000000       0.071
   0.00000000  0.09833486  0.00000000       0.071
   0.00000000  0.14750229  0.00000000       0.071
  -0.00149109  0.00000000  0.04873370       0.036
  -0.00149109  0.04916743  0.04873370       0.071
  -0.00149109  0.09833486  0.04873370       0.071
  -0.00149109  0.14750229  0.04873370       0.071
   0.05133456  0.00000000 -0.00146565       0.036
   0.05133456  0.04916743 -0.00146565       0.071
   0.05133456  0.09833486 -0.00146565       0.071
   0.05133456  0.14750229 -0.00146565       0.071
   0.04984346  0.00000000  0.04726805       0.036
   0.04984346  0.04916743  0.04726805       0.071
   0.04984346  0.09833486  0.04726805       0.071
   0.04984346  0.14750229  0.04726805       0.071
 
 k-points in reciprocal lattice and weights: con1.16                                 
   0.00000000  0.00000000  0.00000000       0.036
   0.14285714  0.00000000  0.00000000       0.071
   0.28571429  0.00000000  0.00000000       0.071
   0.42857143  0.00000000  0.00000000       0.071
   0.00000000  0.50000000 -0.00000000       0.036
   0.14285714  0.50000000 -0.00000000       0.071
   0.28571429  0.50000000 -0.00000000       0.071
   0.42857143  0.50000000 -0.00000000       0.071
   0.00000000  0.00000000  0.50000000       0.036
   0.14285714  0.00000000  0.50000000       0.071
   0.28571429  0.00000000  0.50000000       0.071
   0.42857143  0.00000000  0.50000000       0.071
   0.00000000  0.50000000  0.50000000       0.036
   0.14285714  0.50000000  0.50000000       0.071
   0.28571429  0.50000000  0.50000000       0.071
   0.42857143  0.50000000  0.50000000       0.071
 
 position of ions in fractional coordinates (direct lattice) 
   0.25000000  0.00195775  0.13743328
   0.25000000  0.52503977  0.13475842
   0.25000000  0.23260692  0.61675961
   0.25000000  0.72457359  0.62830279
   0.75000000  0.47875740  0.85084683
   0.75000000  0.00160279  0.84929969
   0.75000000  0.27581052  0.34777974
   0.75000000  0.76458816  0.35832105
   0.25000000  0.19242017  0.26426762
   0.25000000  0.67649369  0.27961681
   0.25000000  0.08766034  0.74876374
   0.25000000  0.57965545  0.75921409
   0.75000000  0.32749519  0.69274361
   0.75000000  0.81601923  0.70874312
   0.75000000  0.42000557  0.21891464
   0.75000000  0.90827043  0.22651913
   0.25000000  0.35773250  0.45671441
   0.25000000  0.85139804  0.46890428
   0.25000000  0.39597282  0.94996802
   0.25000000  0.90012348  0.93890578
   0.75000000  0.15192550  0.51311740
   0.75000000  0.64637974  0.52537747
   0.75000000  0.10271803  0.04456695
   0.75000000  0.60739523  0.03431086
   0.25000000  0.24077894  0.05344100
   0.75000000  0.76328484  0.93133025
   0.75000000  0.46576393  0.53390568
   0.75000000  0.96550078  0.53767761
 
 position of ions in cartesian coordinates  (Angst):
   1.34034825  0.72638095  0.06109649
   1.46763168  0.72638095  5.43172892
   6.08070458  0.72638095  2.57255973
   6.33747057  0.72638095  7.62791535
   8.43488140  2.17914286  5.17005448
   8.27990487  2.17914286  0.26978257
   3.47120915  2.17914286  2.93597964
   3.71727349  2.17914286  7.95828891
   2.63263893  0.72638095  2.05475042
   2.92419381  0.72638095  7.03018803
   7.32505651  0.72638095  1.12350406
   7.57117733  0.72638095  6.17882581
   6.84925757  2.17914286  3.56961340
   7.14845703  2.17914286  8.59094660
   2.25723785  2.17914286  4.37825426
   2.47452200  2.17914286  9.39442191
   4.55718179  0.72638095  3.80971332
   4.82075013  0.72638095  8.88270723
   9.37689755  0.72638095  4.34952059
   9.41686579  0.72638095  9.52324871
   5.04668946  2.17914286  1.71314366
   5.31117344  2.17914286  6.79425763
   0.46457812  2.17914286  1.06808516
   0.51255955  2.17914286  6.24746072
   0.59156451  0.72638095  2.48845344
   9.30289642  2.17914286  8.11581906
   5.34135729  2.17914286  4.94209176
   5.52464303  2.17914286 10.07491996
 


--------------------------------------------------------------------------------------------------------


 k-point  1 :   0.0000 0.0000 0.0000  plane waves:    7845
 k-point  2 :   0.1429 0.0000 0.0000  plane waves:    7829
 k-point  3 :   0.2857 0.0000 0.0000  plane waves:    7821
 k-point  4 :   0.4286 0.0000 0.0000  plane waves:    7786
 k-point  5 :   0.0000 0.5000-0.0000  plane waves:    7878
 k-point  6 :   0.1429 0.5000-0.0000  plane waves:    7848
 k-point  7 :   0.2857 0.5000-0.0000  plane waves:    7820
 k-point  8 :   0.4286 0.5000-0.0000  plane waves:    7786
 k-point  9 :   0.0000 0.0000 0.5000  plane waves:    7844
 k-point 10 :   0.1429 0.0000 0.5000  plane waves:    7864
 k-point 11 :   0.2857 0.0000 0.5000  plane waves:    7818
 k-point 12 :   0.4286 0.0000 0.5000  plane waves:    7774
 k-point 13 :   0.0000 0.5000 0.5000  plane waves:    7888
 k-point 14 :   0.1429 0.5000 0.5000  plane waves:    7842
 k-point 15 :   0.2857 0.5000 0.5000  plane waves:    7828
 k-point 16 :   0.4286 0.5000 0.5000  plane waves:    7786

 maximum and minimum number of plane-waves per node :      3958     3871

 maximum number of plane-waves:      7888
 maximum index in each direction: 
   IXMAX=    5   IYMAX=   19   IZMAX=   18
   IXMIN=   -5   IYMIN=  -19   IZMIN=  -18

 WARNING: aliasing errors must be expected set NGX to  22 to avoid them
 WARNING: aliasing errors must be expected set NGY to  78 to avoid them
 WARNING: aliasing errors must be expected set NGZ to  74 to avoid them
 aliasing errors are usually negligible using standard VASP settings
 and one can safely disregard these warnings

 parallel 3D FFT for wavefunctions:
    minimum data exchange during FFTs selected (reduces bandwidth)
 parallel 3D FFT for charge:
    minimum data exchange during FFTs selected (reduces bandwidth)


 total amount of memory used by VASP on root node    90936. kBytes
========================================================================

   base      :      30000. kBytes
   nonl-proj :      29145. kBytes
   fftplans  :       1686. kBytes
   grid      :       4406. kBytes
   one-center:        435. kBytes
   wavefun   :      25264. kBytes
 
 initial charge density was supplied:
 number of electron     155.9999985 magnetization       0.0000008
 keeping initial charge density in first step


--------------------------------------------------------------------------------------------------------


 Maximum index for augmentation-charges          428 (set IRDMAX)


--------------------------------------------------------------------------------------------------------


 First call to EWALD:  gamma=   0.268
 Maximum number of real-space cells 6x 2x 2
 Maximum number of reciprocal cells 1x 4x 4

 FEWALD executed in parallel
    FEWALD:  cpu time    0.00: real time    0.00


----------------------------------------- Iteration    1(   1)  ---------------------------------------


    POTLOK:  cpu time    0.04: real time    0.04
    SETDIJ:  cpu time    0.01: real time    0.01
     EDDAV:  cpu time    6.16: real time    6.17
 BZINTS: Fermi energy:  3.141856;156.000000 electrons
         Band energy:-564.128622;  BLOECHL correction:  0.000000
       DOS:  cpu time    0.00: real time    0.00
    --------------------------------------------
      LOOP:  cpu time    6.22: real time    6.30

 eigenvalue-minimisations  :  6112
 total energy-change (2. order) :-0.1669165E+03  (-0.1800365E+03)
 number of electron     155.9999985 magnetization       0.0000008
 augmentation part      155.9999985 magnetization       0.0000008

 Free energy of the ion-electron system (eV)
  ---------------------------------------------------
  alpha Z        PSCENC =       543.23214219
  Ewald energy   TEWEN  =     -7741.17013402
  -1/2 Hartree   DENC   =     -3196.44862816
  -exchange  EXHF       =         0.00000000
  -V(xc)+E(xc)   XCENC  =       364.49108591
  PAW double counting   =     12747.79200672   -12593.62631900
  entropy T*S    EENTRO =         0.00000000
  eigenvalues    EBANDS =      -564.12862217
  atomic energy  EATOM  =     10272.94192799
  ---------------------------------------------------
  free energy    TOTEN  =      -166.91654055 eV

  energy without entropy =     -166.91654055  energy(sigma->0) =     -166.91654055


--------------------------------------------------------------------------------------------------------




----------------------------------------- Iteration    1(   2)  ---------------------------------------


     EDDAV:  cpu time    8.10: real time    8.10
 BZINTS: Fermi energy:  2.701929;156.000000 electrons
         Band energy:-586.709371;  BLOECHL correction:  0.000000
       DOS:  cpu time    0.00: real time    0.00
    --------------------------------------------
      LOOP:  cpu time    8.11: real time    8.19

 eigenvalue-minimisations  :  8760
 total energy-change (2. order) :-0.2258075E+02  (-0.2241769E+02)
 number of electron     155.9999985 magnetization       0.0000008
 augmentation part      155.9999985 magnetization       0.0000008

 Free energy of the ion-electron system (eV)
  ---------------------------------------------------
  alpha Z        PSCENC =       543.23214219
  Ewald energy   TEWEN  =     -7741.17013402
  -1/2 Hartree   DENC   =     -3196.44862816
  -exchange  EXHF       =         0.00000000
  -V(xc)+E(xc)   XCENC  =       364.49108591
  PAW double counting   =     12747.79200672   -12593.62631900
  entropy T*S    EENTRO =         0.00000000
  eigenvalues    EBANDS =      -586.70937103
  atomic energy  EATOM  =     10272.94192799
  ---------------------------------------------------
  free energy    TOTEN  =      -189.49728941 eV

  energy without entropy =     -189.49728941  energy(sigma->0) =     -189.49728941


--------------------------------------------------------------------------------------------------------




----------------------------------------- Iteration    1(   3)  ---------------------------------------


     EDDAV:  cpu time    8.50: real time    8.50
 BZINTS: Fermi energy:  2.687624;156.000000 electrons
         Band energy:-587.548788;  BLOECHL correction:  0.000000
       DOS:  cpu time    0.00: real time    0.00
    --------------------------------------------
      LOOP:  cpu time    8.51: real time    8.67

 eigenvalue-minimisations  :  9320
 total energy-change (2. order) :-0.8394172E+00  (-0.8366948E+00)
 number of electron     155.9999985 magnetization       0.0000008
 augmentation part      155.9999985 magnetization       0.0000008

 Free energy of the ion-electron system (eV)
  ---------------------------------------------------
  alpha Z        PSCENC =       543.23214219
  Ewald energy   TEWEN  =     -7741.17013402
  -1/2 Hartree   DENC   =     -3196.44862816
  -exchange  EXHF       =         0.00000000
  -V(xc)+E(xc)   XCENC  =       364.49108591
  PAW double counting   =     12747.79200672   -12593.62631900
  entropy T*S    EENTRO =         0.00000000
  eigenvalues    EBANDS =      -587.54878819
  atomic energy  EATOM  =     10272.94192799
  ---------------------------------------------------
  free energy    TOTEN  =      -190.33670657 eV

  energy without entropy =     -190.33670657  energy(sigma->0) =     -190.33670657


--------------------------------------------------------------------------------------------------------




----------------------------------------- Iteration    1(   4)  ---------------------------------------


     EDDAV:  cpu time    8.44: real time    8.44
 BZINTS: Fermi energy:  2.685226;156.000000 electrons
         Band energy:-587.590990;  BLOECHL correction:  0.000000
       DOS:  cpu time    0.00: real time    0.00
    --------------------------------------------
      LOOP:  cpu time    8.44: real time    8.54

 eigenvalue-minimisations  :  9224
 total energy-change (2. order) :-0.4220216E-01  (-0.4215539E-01)
 number of electron     155.9999985 magnetization       0.0000008
 augmentation part      155.9999985 magnetization       0.0000008

 Free energy of the ion-electron system (eV)
  ---------------------------------------------------
  alpha Z        PSCENC =       543.23214219
  Ewald energy   TEWEN  =     -7741.17013402
  -1/2 Hartree   DENC   =     -3196.44862816
  -exchange  EXHF       =         0.00000000
  -V(xc)+E(xc)   XCENC  =       364.49108591
  PAW double counting   =     12747.79200672   -12593.62631900
  entropy T*S    EENTRO =         0.00000000
  eigenvalues    EBANDS =      -587.59099035
  atomic energy  EATOM  =     10272.94192799
  ---------------------------------------------------
  free energy    TOTEN  =      -190.37890873 eV

  energy without entropy =     -190.37890873  energy(sigma->0) =     -190.37890873


--------------------------------------------------------------------------------------------------------




----------------------------------------- Iteration    1(   5)  ---------------------------------------


     EDDAV:  cpu time    8.45: real time    8.46
 BZINTS: Fermi energy:  2.675359;156.000000 electrons
         Band energy:-587.593444;  BLOECHL correction:  0.000000
       DOS:  cpu time    0.00: real time    0.00
    --------------------------------------------
      LOOP:  cpu time    8.46: real time    8.61

 eigenvalue-minimisations  :  9256
 total energy-change (2. order) :-0.2453236E-02  (-0.2451262E-02)
 number of electron     155.9999985 magnetization       0.0000008
 augmentation part      155.9999985 magnetization       0.0000008

 Free energy of the ion-electron system (eV)
  ---------------------------------------------------
  alpha Z        PSCENC =       543.23214219
  Ewald energy   TEWEN  =     -7741.17013402
  -1/2 Hartree   DENC   =     -3196.44862816
  -exchange  EXHF       =         0.00000000
  -V(xc)+E(xc)   XCENC  =       364.49108591
  PAW double counting   =     12747.79200672   -12593.62631900
  entropy T*S    EENTRO =         0.00000000
  eigenvalues    EBANDS =      -587.59344358
  atomic energy  EATOM  =     10272.94192799
  ---------------------------------------------------
  free energy    TOTEN  =      -190.38136196 eV

  energy without entropy =     -190.38136196  energy(sigma->0) =     -190.38136196


--------------------------------------------------------------------------------------------------------




----------------------------------------- Iteration    1(   6)  ---------------------------------------


     EDDAV:  cpu time    7.63: real time    7.64
 BZINTS: Fermi energy:  2.700900;156.000000 electrons
         Band energy:-587.593621;  BLOECHL correction:  0.000000
       DOS:  cpu time    0.00: real time    0.00
    --------------------------------------------
      LOOP:  cpu time    7.64: real time    7.82

 eigenvalue-minimisations  :  8120
 total energy-change (2. order) :-0.1770531E-03  (-0.1769813E-03)
 number of electron     155.9999985 magnetization       0.0000008
 augmentation part      155.9999985 magnetization       0.0000008

 Free energy of the ion-electron system (eV)
  ---------------------------------------------------
  alpha Z        PSCENC =       543.23214219
  Ewald energy   TEWEN  =     -7741.17013402
  -1/2 Hartree   DENC   =     -3196.44862816
  -exchange  EXHF       =         0.00000000
  -V(xc)+E(xc)   XCENC  =       364.49108591
  PAW double counting   =     12747.79200672   -12593.62631900
  entropy T*S    EENTRO =         0.00000000
  eigenvalues    EBANDS =      -587.59362064
  atomic energy  EATOM  =     10272.94192799
  ---------------------------------------------------
  free energy    TOTEN  =      -190.38153902 eV

  energy without entropy =     -190.38153902  energy(sigma->0) =     -190.38153902


--------------------------------------------------------------------------------------------------------




----------------------------------------- Iteration    1(   7)  ---------------------------------------


     EDDAV:  cpu time    6.20: real time    6.21
 BZINTS: Fermi energy:  2.674307;156.000000 electrons
         Band energy:-587.593636;  BLOECHL correction:  0.000000
       DOS:  cpu time    0.00: real time    0.00
    --------------------------------------------
      LOOP:  cpu time    6.21: real time    6.31

 eigenvalue-minimisations  :  6144
 total energy-change (2. order) :-0.1569092E-04  (-0.1568456E-04)
 number of electron     155.9999985 magnetization       0.0000008
 augmentation part      155.9999985 magnetization       0.0000008

 Free energy of the ion-electron system (eV)
  ---------------------------------------------------
  alpha Z        PSCENC =       543.23214219
  Ewald energy   TEWEN  =     -7741.17013402
  -1/2 Hartree   DENC   =     -3196.44862816
  -exchange  EXHF       =         0.00000000
  -V(xc)+E(xc)   XCENC  =       364.49108591
  PAW double counting   =     12747.79200672   -12593.62631900
  entropy T*S    EENTRO =         0.00000000
  eigenvalues    EBANDS =      -587.59363633
  atomic energy  EATOM  =     10272.94192799
  ---------------------------------------------------
  free energy    TOTEN  =      -190.38155471 eV

  energy without entropy =     -190.38155471  energy(sigma->0) =     -190.38155471


--------------------------------------------------------------------------------------------------------




----------------------------------------- Iteration    1(   8)  ---------------------------------------


     EDDAV:  cpu time    5.24: real time    5.25
 BZINTS: Fermi energy:  2.660343;156.000000 electrons
         Band energy:-587.593638;  BLOECHL correction:  0.000000
       DOS:  cpu time    0.00: real time    0.00
    --------------------------------------------
      LOOP:  cpu time    5.25: real time    5.35

 eigenvalue-minimisations  :  4848
 total energy-change (2. order) :-0.1678206E-05  (-0.1678037E-05)
 number of electron     155.9999985 magnetization       0.0000008
 augmentation part      155.9999985 magnetization       0.0000008

 Free energy of the ion-electron system (eV)
  ---------------------------------------------------
  alpha Z        PSCENC =       543.23214219
  Ewald energy   TEWEN  =     -7741.17013402
  -1/2 Hartree   DENC   =     -3196.44862816
  -exchange  EXHF       =         0.00000000
  -V(xc)+E(xc)   XCENC  =       364.49108591
  PAW double counting   =     12747.79200672   -12593.62631900
  entropy T*S    EENTRO =         0.00000000
  eigenvalues    EBANDS =      -587.59363801
  atomic energy  EATOM  =     10272.94192799
  ---------------------------------------------------
  free energy    TOTEN  =      -190.38155638 eV

  energy without entropy =     -190.38155638  energy(sigma->0) =     -190.38155638


--------------------------------------------------------------------------------------------------------




 average (electrostatic) potential at core
  the test charge radii are     1.0210  0.7215  0.9748
  (the norm of the test charge is              1.0000)
       1 -47.3725       2 -47.2689       3 -48.3992       4 -48.4573       5 -47.1843
       6 -47.4338       7 -48.5120       8 -48.2300       9 -72.1831      10 -72.0742
      11 -72.1863      12 -71.9506      13 -72.0607      14 -72.0815      15 -71.9581
      16 -72.0345      17 -72.6320      18 -72.3711      19 -71.3450      20 -71.5739
      21 -72.4308      22 -72.5165      23 -71.5291      24 -71.3755      25 -25.0953
      26 -25.2397      27 -25.6679      28 -25.8638
 
 
 
 E-fermi :   2.6603     XC(G=0): -10.5646     alpha+bet :-10.7995


 spin component 1

 k-point   1 :       0.0000    0.0000    0.0000
  band No.  band energies     occupation 
      1     -16.4205      1.00000
      2     -16.3575      1.00000
      3     -15.5475      1.00000
      4     -15.5287      1.00000
      5     -15.3663      1.00000
      6     -15.2694      1.00000
      7     -15.1537      1.00000
      8     -15.0632      1.00000
      9     -14.9590      1.00000
     10     -14.7997      1.00000
     11     -14.7073      1.00000
     12     -14.6373      1.00000
     13     -14.5231      1.00000
     14     -14.3118      1.00000
     15     -14.2005      1.00000
     16     -14.0884      1.00000
     17      -4.4590      1.00000
     18      -4.2172      1.00000
     19      -4.0692      1.00000
     20      -3.8883      1.00000
     21      -3.7388      1.00000
     22      -3.3273      1.00000
     23      -3.1414      1.00000
     24      -2.9874      1.00000
     25      -2.8986      1.00000
     26      -2.8578      1.00000
     27      -2.6805      1.00000
     28      -2.5941      1.00000
     29      -2.5086      1.00000
     30      -2.3194      1.00000
     31      -2.2854      1.00000
     32      -2.1943      1.00000
     33      -2.1403      1.00000
     34      -2.0452      1.00000
     35      -1.9179      1.00000
     36      -1.9153      1.00000
     37      -1.6797      1.00000
     38      -1.5078      1.00000
     39      -1.4707      1.00000
     40      -1.3184      1.00000
     41      -1.1876      1.00000
     42      -1.1810      1.00000
     43      -0.9939      1.00000
     44      -0.8844      1.00000
     45      -0.8011      1.00000
     46      -0.7534      1.00000
     47      -0.7194      1.00000
     48      -0.6953      1.00000
     49      -0.5542      1.00000
     50      -0.4514      1.00000
     51      -0.3699      1.00000
     52      -0.3303      1.00000
     53      -0.1422      1.00000
     54      -0.1370      1.00000
     55      -0.1190      1.00000
     56       0.0030      1.00000
     57       0.1901      1.00000
     58       0.2233      1.00000
     59       0.4218      1.00000
     60       0.4584      1.00000
     61       0.5297      1.00000
     62       0.6466      1.00000
     63       0.7737      1.00000
     64       0.7953      1.00000
     65       0.9583      1.00000
     66       0.9806      1.00000
     67       1.0336      1.00000
     68       1.0799      1.00000
     69       1.2115      1.00000
     70       1.2591      1.00000
     71       1.3709      1.00000
     72       1.4119      1.00000
     73       1.4268      1.00000
     74       1.6250      1.00000
     75       1.8665      1.00000
     76       2.0159      1.00000
     77       2.2847      1.00000
     78       2.5529      1.00000
     79       3.5908      0.00000
     80       4.0535      0.00000
     81       4.2062      0.00000
     82       4.4346      0.00000
     83       4.6302      0.00000
     84       4.8322      0.00000
     85       4.8594      0.00000
     86       5.0727      0.00000
     87       5.7315      0.00000
     88       5.7904      0.00000
     89       5.8384      0.00000
     90       5.8755      0.00000
     91       5.9724      0.00000
     92       6.0579      0.00000
     93       6.1619      0.00000
     94       6.3910      0.00000
     95       6.4301      0.00000
     96       6.5069      0.00000

 k-point   2 :       0.1429    0.0000    0.0000
  band No.  band energies     occupation 
      1     -16.2710      1.00000
      2     -16.2149      1.00000
      3     -15.4303      1.00000
      4     -15.4055      1.00000
      5     -15.2494      1.00000
      6     -15.1753      1.00000
      7     -15.0818      1.00000
      8     -15.0276      1.00000
      9     -14.9497      1.00000
     10     -14.7760      1.00000
     11     -14.6864      1.00000
     12     -14.6404      1.00000
     13     -14.5166      1.00000
     14     -14.3077      1.00000
     15     -14.2042      1.00000
     16     -14.0826      1.00000
     17      -4.2615      1.00000
     18      -4.0015      1.00000
     19      -3.8062      1.00000
     20      -3.6803      1.00000
     21      -3.6124      1.00000
     22      -3.3738      1.00000
     23      -3.2608      1.00000
     24      -3.0668      1.00000
     25      -2.9014      1.00000
     26      -2.7075      1.00000
     27      -2.6312      1.00000
     28      -2.4813      1.00000
     29      -2.4641      1.00000
     30      -2.4134      1.00000
     31      -2.3115      1.00000
     32      -2.2780      1.00000
     33      -2.1609      1.00000
     34      -2.1053      1.00000
     35      -1.9836      1.00000
     36      -1.9485      1.00000
     37      -1.8068      1.00000
     38      -1.6859      1.00000
     39      -1.6184      1.00000
     40      -1.5819      1.00000
     41      -1.3938      1.00000
     42      -1.2736      1.00000
     43      -1.1291      1.00000
     44      -1.0779      1.00000
     45      -0.9362      1.00000
     46      -0.8176      1.00000
     47      -0.7656      1.00000
     48      -0.6387      1.00000
     49      -0.5961      1.00000
     50      -0.5301      1.00000
     51      -0.4293      1.00000
     52      -0.3576      1.00000
     53      -0.3116      1.00000
     54      -0.1829      1.00000
     55      -0.0511      1.00000
     56       0.0259      1.00000
     57       0.1489      1.00000
     58       0.1806      1.00000
     59       0.2602      1.00000
     60       0.3605      1.00000
     61       0.4250      1.00000
     62       0.5347      1.00000
     63       0.5626      1.00000
     64       0.7251      1.00000
     65       0.7485      1.00000
     66       0.8128      1.00000
     67       0.9851      1.00000
     68       1.0296      1.00000
     69       1.1622      1.00000
     70       1.1991      1.00000
     71       1.3540      1.00000
     72       1.4221      1.00000
     73       1.5481      1.00000
     74       1.5836      1.00000
     75       1.8114      1.00000
     76       1.8864      1.00000
     77       2.2635      1.00000
     78       2.5852      1.00000
     79       3.6092      0.00000
     80       3.7796      0.00000
     81       4.0276      0.00000
     82       4.1667      0.00000
     83       4.3648      0.00000
     84       4.5773      0.00000
     85       5.1164      0.00000
     86       5.3330      0.00000
     87       5.6042      0.00000
     88       5.6843      0.00000
     89       5.7437      0.00000
     90       5.9638      0.00000
     91       6.0341      0.00000
     92       6.1587      0.00000
     93       6.1828      0.00000
     94       6.2737      0.00000
     95       6.4481      0.00000
     96       6.5341      0.00000

 k-point   3 :       0.2857    0.0000    0.0000
  band No.  band energies     occupation 
      1     -15.8955      1.00000
      2     -15.8568      1.00000
      3     -15.1793      1.00000
      4     -15.1643      1.00000
      5     -15.0481      1.00000
      6     -15.0233      1.00000
      7     -14.9450      1.00000
      8     -14.8608      1.00000
      9     -14.8504      1.00000
     10     -14.7337      1.00000
     11     -14.6387      1.00000
     12     -14.6305      1.00000
     13     -14.4915      1.00000
     14     -14.2882      1.00000
     15     -14.2080      1.00000
     16     -14.0639      1.00000
     17      -4.1851      1.00000
     18      -3.8905      1.00000
     19      -3.5325      1.00000
     20      -3.3273      1.00000
     21      -3.2144      1.00000
     22      -3.1769      1.00000
     23      -3.0159      1.00000
     24      -2.9213      1.00000
     25      -2.8798      1.00000
     26      -2.7209      1.00000
     27      -2.6516      1.00000
     28      -2.5199      1.00000
     29      -2.4494      1.00000
     30      -2.4214      1.00000
     31      -2.3999      1.00000
     32      -2.3296      1.00000
     33      -2.2805      1.00000
     34      -2.2506      1.00000
     35      -2.2114      1.00000
     36      -2.0945      1.00000
     37      -1.9850      1.00000
     38      -1.9320      1.00000
     39      -1.8548      1.00000
     40      -1.7587      1.00000
     41      -1.5725      1.00000
     42      -1.5511      1.00000
     43      -1.4998      1.00000
     44      -1.4464      1.00000
     45      -1.0427      1.00000
     46      -1.0062      1.00000
     47      -0.9936      1.00000
     48      -0.8872      1.00000
     49      -0.7943      1.00000
     50      -0.7177      1.00000
     51      -0.5872      1.00000
     52      -0.5269      1.00000
     53      -0.5013      1.00000
     54      -0.3997      1.00000
     55      -0.1789      1.00000
     56      -0.1323      1.00000
     57      -0.0085      1.00000
     58       0.0218      1.00000
     59       0.1973      1.00000
     60       0.3152      1.00000
     61       0.3712      1.00000
     62       0.4037      1.00000
     63       0.4689      1.00000
     64       0.5600      1.00000
     65       0.6008      1.00000
     66       0.7007      1.00000
     67       0.7541      1.00000
     68       0.9069      1.00000
     69       1.0210      1.00000
     70       1.1126      1.00000
     71       1.2354      1.00000
     72       1.3299      1.00000
     73       1.4022      1.00000
     74       1.4352      1.00000
     75       1.5988      1.00000
     76       1.7360      1.00000
     77       2.1698      1.00000
     78       2.4779      1.00000
     79       3.4367      0.00000
     80       3.5182      0.00000
     81       3.8587      0.00000
     82       4.0303      0.00000
     83       4.0821      0.00000
     84       4.3293      0.00000
     85       5.2737      0.00000
     86       5.3560      0.00000
     87       5.5652      0.00000
     88       5.6951      0.00000
     89       5.7407      0.00000
     90       5.8126      0.00000
     91       6.0499      0.00000
     92       6.2147      0.00000
     93       6.3176      0.00000
     94       6.3689      0.00000
     95       6.4395      0.00000
     96       6.5950      0.00000

 k-point   4 :       0.4286    0.0000    0.0000
  band No.  band energies     occupation 
      1     -15.5020      1.00000
      2     -15.4885      1.00000
      3     -15.1799      1.00000
      4     -15.1437      1.00000
      5     -14.9156      1.00000
      6     -14.8148      1.00000
      7     -14.7512      1.00000
      8     -14.7351      1.00000
      9     -14.6868      1.00000
     10     -14.6753      1.00000
     11     -14.6321      1.00000
     12     -14.6209      1.00000
     13     -14.4219      1.00000
     14     -14.2166      1.00000
     15     -14.2109      1.00000
     16     -14.0631      1.00000
     17      -4.5119      1.00000
     18      -4.2348      1.00000
     19      -3.3807      1.00000
     20      -3.3212      1.00000
     21      -3.2896      1.00000
     22      -3.2508      1.00000
     23      -3.1936      1.00000
     24      -3.0448      1.00000
     25      -2.9222      1.00000
     26      -2.8067      1.00000
     27      -2.6773      1.00000
     28      -2.5993      1.00000
     29      -2.4454      1.00000
     30      -2.3729      1.00000
     31      -2.3214      1.00000
     32      -2.2632      1.00000
     33      -2.1752      1.00000
     34      -2.1278      1.00000
     35      -2.0163      1.00000
     36      -1.8983      1.00000
     37      -1.8577      1.00000
     38      -1.8056      1.00000
     39      -1.6916      1.00000
     40      -1.6139      1.00000
     41      -1.5308      1.00000
     42      -1.3991      1.00000
     43      -1.3310      1.00000
     44      -1.2263      1.00000
     45      -1.1810      1.00000
     46      -1.0336      1.00000
     47      -0.9570      1.00000
     48      -0.9353      1.00000
     49      -0.9043      1.00000
     50      -0.7986      1.00000
     51      -0.6738      1.00000
     52      -0.6489      1.00000
     53      -0.5853      1.00000
     54      -0.5591      1.00000
     55      -0.4430      1.00000
     56      -0.3933      1.00000
     57      -0.2764      1.00000
     58      -0.2381      1.00000
     59      -0.2185      1.00000
     60      -0.1304      1.00000
     61       0.0015      1.00000
     62       0.0300      1.00000
     63       0.1021      1.00000
     64       0.1348      1.00000
     65       0.2348      1.00000
     66       0.3300      1.00000
     67       0.6629      1.00000
     68       0.7888      1.00000
     69       0.9117      1.00000
     70       1.0082      1.00000
     71       1.0754      1.00000
     72       1.1944      1.00000
     73       1.3506      1.00000
     74       1.4314      1.00000
     75       1.6276      1.00000
     76       1.8314      1.00000
     77       2.0966      1.00000
     78       2.3651      1.00000
     79       3.4335      0.00000
     80       3.5262      0.00000
     81       3.9707      0.00000
     82       4.0770      0.00000
     83       4.1420      0.00000
     84       4.3136      0.00000
     85       5.2075      0.00000
     86       5.3696      0.00000
     87       5.5140      0.00000
     88       5.6208      0.00000
     89       5.7248      0.00000
     90       5.8546      0.00000
     91       6.0709      0.00000
     92       6.2382      0.00000
     93       6.3096      0.00000
     94       6.4721      0.00000
     95       6.4852      0.00000
     96       6.6329      0.00000

 k-point   5 :       0.0000    0.5000   -0.0000
  band No.  band energies     occupation 
      1     -16.3929      1.00000
      2     -16.3876      1.00000
      3     -15.5455      1.00000
      4     -15.5033      1.00000
      5     -15.3736      1.00000
      6     -15.3346      1.00000
      7     -15.1189      1.00000
      8     -15.0578      1.00000
      9     -14.9013      1.00000
     10     -14.8324      1.00000
     11     -14.7281      1.00000
     12     -14.6402      1.00000
     13     -14.5197      1.00000
     14     -14.3142      1.00000
     15     -14.1966      1.00000
     16     -14.0881      1.00000
     17      -4.4587      1.00000
     18      -4.2114      1.00000
     19      -4.0788      1.00000
     20      -3.8688      1.00000
     21      -3.7412      1.00000
     22      -3.3377      1.00000
     23      -3.1414      1.00000
     24      -2.9636      1.00000
     25      -2.8729      1.00000
     26      -2.8579      1.00000
     27      -2.7244      1.00000
     28      -2.5952      1.00000
     29      -2.5338      1.00000
     30      -2.3440      1.00000
     31      -2.3193      1.00000
     32      -2.1406      1.00000
     33      -2.1403      1.00000
     34      -2.0457      1.00000
     35      -1.9177      1.00000
     36      -1.9081      1.00000
     37      -1.6440      1.00000
     38      -1.5759      1.00000
     39      -1.5069      1.00000
     40      -1.2569      1.00000
     41      -1.1857      1.00000
     42      -1.1795      1.00000
     43      -0.9978      1.00000
     44      -0.8899      1.00000
     45      -0.7971      1.00000
     46      -0.7368      1.00000
     47      -0.6990      1.00000
     48      -0.6147      1.00000
     49      -0.5614      1.00000
     50      -0.5001      1.00000
     51      -0.4605      1.00000
     52      -0.3791      1.00000
     53      -0.1177      1.00000
     54      -0.1172      1.00000
     55      -0.1036      1.00000
     56       0.1224      1.00000
     57       0.1838      1.00000
     58       0.1900      1.00000
     59       0.3650      1.00000
     60       0.5783      1.00000
     61       0.6103      1.00000
     62       0.6539      1.00000
     63       0.7542      1.00000
     64       0.7761      1.00000
     65       0.8935      1.00000
     66       0.9037      1.00000
     67       1.0667      1.00000
     68       1.0704      1.00000
     69       1.2045      1.00000
     70       1.2074      1.00000
     71       1.3558      1.00000
     72       1.3865      1.00000
     73       1.4681      1.00000
     74       1.6606      1.00000
     75       1.8568      1.00000
     76       2.0028      1.00000
     77       2.2958      1.00000
     78       2.5403      1.00000
     79       3.5704      0.00000
     80       4.0731      0.00000
     81       4.2065      0.00000
     82       4.4374      0.00000
     83       4.6455      0.00000
     84       4.8310      0.00000
     85       4.8386      0.00000
     86       5.0743      0.00000
     87       5.7547      0.00000
     88       5.7715      0.00000
     89       5.8455      0.00000
     90       5.8724      0.00000
     91       5.9634      0.00000
     92       6.0597      0.00000
     93       6.1632      0.00000
     94       6.3922      0.00000
     95       6.4333      0.00000
     96       6.5739      0.00000

 k-point   6 :       0.1429    0.5000   -0.0000
  band No.  band energies     occupation 
      1     -16.2461      1.00000
      2     -16.2417      1.00000
      3     -15.4268      1.00000
      4     -15.3869      1.00000
      5     -15.2622      1.00000
      6     -15.2118      1.00000
      7     -15.0862      1.00000
      8     -15.0304      1.00000
      9     -14.8629      1.00000
     10     -14.8010      1.00000
     11     -14.7131      1.00000
     12     -14.6448      1.00000
     13     -14.5124      1.00000
     14     -14.3102      1.00000
     15     -14.2010      1.00000
     16     -14.0824      1.00000
     17      -4.2614      1.00000
     18      -3.9953      1.00000
     19      -3.8135      1.00000
     20      -3.6756      1.00000
     21      -3.6048      1.00000
     22      -3.3741      1.00000
     23      -3.2679      1.00000
     24      -3.0689      1.00000
     25      -2.8654      1.00000
     26      -2.7038      1.00000
     27      -2.6380      1.00000
     28      -2.5751      1.00000
     29      -2.4622      1.00000
     30      -2.3693      1.00000
     31      -2.3210      1.00000
     32      -2.2708      1.00000
     33      -2.1720      1.00000
     34      -2.1135      1.00000
     35      -1.9747      1.00000
     36      -1.9463      1.00000
     37      -1.7982      1.00000
     38      -1.6711      1.00000
     39      -1.6369      1.00000
     40      -1.5843      1.00000
     41      -1.4008      1.00000
     42      -1.2630      1.00000
     43      -1.1226      1.00000
     44      -1.0397      1.00000
     45      -0.9446      1.00000
     46      -0.8555      1.00000
     47      -0.7572      1.00000
     48      -0.6702      1.00000
     49      -0.6279      1.00000
     50      -0.4424      1.00000
     51      -0.3905      1.00000
     52      -0.3538      1.00000
     53      -0.2909      1.00000
     54      -0.2616      1.00000
     55      -0.1454      1.00000
     56       0.1357      1.00000
     57       0.1946      1.00000
     58       0.2666      1.00000
     59       0.2817      1.00000
     60       0.3337      1.00000
     61       0.3643      1.00000
     62       0.5162      1.00000
     63       0.5847      1.00000
     64       0.6635      1.00000
     65       0.6868      1.00000
     66       0.8610      1.00000
     67       0.9453      1.00000
     68       1.0121      1.00000
     69       1.1022      1.00000
     70       1.2923      1.00000
     71       1.3539      1.00000
     72       1.4769      1.00000
     73       1.5211      1.00000
     74       1.5923      1.00000
     75       1.7996      1.00000
     76       1.8985      1.00000
     77       2.2619      1.00000
     78       2.5574      1.00000
     79       3.6042      0.00000
     80       3.7796      0.00000
     81       4.0239      0.00000
     82       4.1795      0.00000
     83       4.3596      0.00000
     84       4.5716      0.00000
     85       5.1197      0.00000
     86       5.3373      0.00000
     87       5.6080      0.00000
     88       5.6815      0.00000
     89       5.7438      0.00000
     90       5.9641      0.00000
     91       6.0310      0.00000
     92       6.1568      0.00000
     93       6.1979      0.00000
     94       6.2762      0.00000
     95       6.5295      0.00000
     96       6.6715      0.00000

 k-point   7 :       0.2857    0.5000   -0.0000
  band No.  band energies     occupation 
      1     -15.8825      1.00000
      2     -15.8706      1.00000
      3     -15.1796      1.00000
      4     -15.1578      1.00000
      5     -15.0473      1.00000
      6     -15.0090      1.00000
      7     -14.9729      1.00000
      8     -14.9160      1.00000
      9     -14.7683      1.00000
     10     -14.7195      1.00000
     11     -14.6672      1.00000
     12     -14.6383      1.00000
     13     -14.4888      1.00000
     14     -14.2895      1.00000
     15     -14.2068      1.00000
     16     -14.0640      1.00000
     17      -4.1843      1.00000
     18      -3.8894      1.00000
     19      -3.5335      1.00000
     20      -3.3261      1.00000
     21      -3.2247      1.00000
     22      -3.1746      1.00000
     23      -2.9732      1.00000
     24      -2.9596      1.00000
     25      -2.8769      1.00000
     26      -2.7002      1.00000
     27      -2.6503      1.00000
     28      -2.5404      1.00000
     29      -2.4767      1.00000
     30      -2.4309      1.00000
     31      -2.3901      1.00000
     32      -2.3123      1.00000
     33      -2.2799      1.00000
     34      -2.2565      1.00000
     35      -2.1483      1.00000
     36      -2.1338      1.00000
     37      -1.9888      1.00000
     38      -1.9748      1.00000
     39      -1.8347      1.00000
     40      -1.7824      1.00000
     41      -1.5963      1.00000
     42      -1.5648      1.00000
     43      -1.4807      1.00000
     44      -1.3728      1.00000
     45      -1.0457      1.00000
     46      -1.0256      1.00000
     47      -0.9697      1.00000
     48      -0.9355      1.00000
     49      -0.7718      1.00000
     50      -0.6991      1.00000
     51      -0.6172      1.00000
     52      -0.5146      1.00000
     53      -0.4169      1.00000
     54      -0.3808      1.00000
     55      -0.2422      1.00000
     56      -0.1182      1.00000
     57      -0.0328      1.00000
     58      -0.0164      1.00000
     59       0.2372      1.00000
     60       0.2981      1.00000
     61       0.3562      1.00000
     62       0.3872      1.00000
     63       0.4602      1.00000
     64       0.6204      1.00000
     65       0.6302      1.00000
     66       0.6665      1.00000
     67       0.7464      1.00000
     68       0.8659      1.00000
     69       0.9661      1.00000
     70       1.0811      1.00000
     71       1.3002      1.00000
     72       1.3612      1.00000
     73       1.4271      1.00000
     74       1.4582      1.00000
     75       1.5695      1.00000
     76       1.7431      1.00000
     77       2.1836      1.00000
     78       2.4612      1.00000
     79       3.4357      0.00000
     80       3.5058      0.00000
     81       3.8624      0.00000
     82       4.0654      0.00000
     83       4.0892      0.00000
     84       4.2763      0.00000
     85       5.2751      0.00000
     86       5.3609      0.00000
     87       5.5620      0.00000
     88       5.6961      0.00000
     89       5.7403      0.00000
     90       5.8128      0.00000
     91       6.0493      0.00000
     92       6.2129      0.00000
     93       6.3209      0.00000
     94       6.3631      0.00000
     95       6.4342      0.00000
     96       6.5944      0.00000

 k-point   8 :       0.4286    0.5000   -0.0000
  band No.  band energies     occupation 
      1     -15.4978      1.00000
      2     -15.4928      1.00000
      3     -15.1800      1.00000
      4     -15.1436      1.00000
      5     -14.9152      1.00000
      6     -14.8137      1.00000
      7     -14.7544      1.00000
      8     -14.7386      1.00000
      9     -14.6803      1.00000
     10     -14.6732      1.00000
     11     -14.6345      1.00000
     12     -14.6219      1.00000
     13     -14.4219      1.00000
     14     -14.2165      1.00000
     15     -14.2110      1.00000
     16     -14.0631      1.00000
     17      -4.5115      1.00000
     18      -4.2342      1.00000
     19      -3.3745      1.00000
     20      -3.3268      1.00000
     21      -3.2974      1.00000
     22      -3.2592      1.00000
     23      -3.1973      1.00000
     24      -3.0508      1.00000
     25      -2.8795      1.00000
     26      -2.7506      1.00000
     27      -2.6842      1.00000
     28      -2.6151      1.00000
     29      -2.4692      1.00000
     30      -2.3906      1.00000
     31      -2.3215      1.00000
     32      -2.2781      1.00000
     33      -2.1600      1.00000
     34      -2.1345      1.00000
     35      -2.0764      1.00000
     36      -1.9522      1.00000
     37      -1.7960      1.00000
     38      -1.7613      1.00000
     39      -1.6648      1.00000
     40      -1.6568      1.00000
     41      -1.5451      1.00000
     42      -1.4254      1.00000
     43      -1.3341      1.00000
     44      -1.2338      1.00000
     45      -1.1156      1.00000
     46      -1.0739      1.00000
     47      -0.9363      1.00000
     48      -0.8991      1.00000
     49      -0.8614      1.00000
     50      -0.7876      1.00000
     51      -0.6985      1.00000
     52      -0.6806      1.00000
     53      -0.6048      1.00000
     54      -0.5361      1.00000
     55      -0.4938      1.00000
     56      -0.3760      1.00000
     57      -0.2819      1.00000
     58      -0.2621      1.00000
     59      -0.1633      1.00000
     60      -0.0680      1.00000
     61      -0.0270      1.00000
     62       0.0511      1.00000
     63       0.1029      1.00000
     64       0.1619      1.00000
     65       0.1852      1.00000
     66       0.3286      1.00000
     67       0.6431      1.00000
     68       0.7780      1.00000
     69       0.9284      1.00000
     70       0.9868      1.00000
     71       1.0645      1.00000
     72       1.2084      1.00000
     73       1.3399      1.00000
     74       1.4297      1.00000
     75       1.6329      1.00000
     76       1.8364      1.00000
     77       2.0915      1.00000
     78       2.3631      1.00000
     79       3.4462      0.00000
     80       3.5260      0.00000
     81       3.9664      0.00000
     82       4.0659      0.00000
     83       4.1783      0.00000
     84       4.2773      0.00000
     85       5.2077      0.00000
     86       5.3708      0.00000
     87       5.5132      0.00000
     88       5.6231      0.00000
     89       5.7300      0.00000
     90       5.8560      0.00000
     91       6.0663      0.00000
     92       6.1670      0.00000
     93       6.2740      0.00000
     94       6.4609      0.00000
     95       6.4700      0.00000
     96       6.5701      0.00000

 k-point   9 :       0.0000    0.0000    0.5000
  band No.  band energies     occupation 
      1     -16.4090      1.00000
      2     -16.3584      1.00000
      3     -15.6875      1.00000
      4     -15.4243      1.00000
      5     -15.3948      1.00000
      6     -15.1744      1.00000
      7     -15.1472      1.00000
      8     -15.0469      1.00000
      9     -14.9667      1.00000
     10     -14.8312      1.00000
     11     -14.7273      1.00000
     12     -14.6329      1.00000
     13     -14.5395      1.00000
     14     -14.3159      1.00000
     15     -14.1941      1.00000
     16     -14.0845      1.00000
     17      -4.4327      1.00000
     18      -4.2060      1.00000
     19      -4.0771      1.00000
     20      -3.8747      1.00000
     21      -3.7557      1.00000
     22      -3.3743      1.00000
     23      -3.1410      1.00000
     24      -2.9865      1.00000
     25      -2.8603      1.00000
     26      -2.8570      1.00000
     27      -2.7814      1.00000
     28      -2.6200      1.00000
     29      -2.3902      1.00000
     30      -2.3209      1.00000
     31      -2.2294      1.00000
     32      -2.1399      1.00000
     33      -2.1394      1.00000
     34      -2.0554      1.00000
     35      -1.9556      1.00000
     36      -1.9176      1.00000
     37      -1.7127      1.00000
     38      -1.6195      1.00000
     39      -1.5064      1.00000
     40      -1.2874      1.00000
     41      -1.1897      1.00000
     42      -1.1272      1.00000
     43      -1.0047      1.00000
     44      -0.9640      1.00000
     45      -0.8570      1.00000
     46      -0.7903      1.00000
     47      -0.6826      1.00000
     48      -0.5948      1.00000
     49      -0.5375      1.00000
     50      -0.4931      1.00000
     51      -0.4847      1.00000
     52      -0.2758      1.00000
     53      -0.1932      1.00000
     54      -0.1251      1.00000
     55      -0.0023      1.00000
     56       0.1338      1.00000
     57       0.2813      1.00000
     58       0.3157      1.00000
     59       0.3495      1.00000
     60       0.4410      1.00000
     61       0.5197      1.00000
     62       0.6878      1.00000
     63       0.7626      1.00000
     64       0.8056      1.00000
     65       0.8563      1.00000
     66       0.9156      1.00000
     67       1.0865      1.00000
     68       1.1031      1.00000
     69       1.1667      1.00000
     70       1.2862      1.00000
     71       1.3560      1.00000
     72       1.3970      1.00000
     73       1.5332      1.00000
     74       1.5985      1.00000
     75       1.8095      1.00000
     76       1.9082      1.00000
     77       2.3115      1.00000
     78       2.6016      1.00000
     79       3.4998      0.00000
     80       4.0767      0.00000
     81       4.2072      0.00000
     82       4.4357      0.00000
     83       4.6558      0.00000
     84       4.8276      0.00000
     85       4.8496      0.00000
     86       5.0831      0.00000
     87       5.7311      0.00000
     88       5.7972      0.00000
     89       5.8073      0.00000
     90       5.8435      0.00000
     91       6.0052      0.00000
     92       6.0865      0.00000
     93       6.1988      0.00000
     94       6.4410      0.00000
     95       6.4642      0.00000
     96       6.6454      0.00000

 k-point  10 :       0.1429    0.0000    0.5000
  band No.  band energies     occupation 
      1     -16.2616      1.00000
      2     -16.2156      1.00000
      3     -15.5468      1.00000
      4     -15.3265      1.00000
      5     -15.2696      1.00000
      6     -15.1117      1.00000
      7     -15.0903      1.00000
      8     -14.9851      1.00000
      9     -14.9371      1.00000
     10     -14.8036      1.00000
     11     -14.7119      1.00000
     12     -14.6359      1.00000
     13     -14.5337      1.00000
     14     -14.3128      1.00000
     15     -14.1990      1.00000
     16     -14.0793      1.00000
     17      -4.2429      1.00000
     18      -3.9908      1.00000
     19      -3.8119      1.00000
     20      -3.6774      1.00000
     21      -3.6073      1.00000
     22      -3.3742      1.00000
     23      -3.3125      1.00000
     24      -3.0921      1.00000
     25      -2.8692      1.00000
     26      -2.6689      1.00000
     27      -2.6302      1.00000
     28      -2.5101      1.00000
     29      -2.4880      1.00000
     30      -2.4346      1.00000
     31      -2.3479      1.00000
     32      -2.2247      1.00000
     33      -2.1390      1.00000
     34      -2.0821      1.00000
     35      -2.0034      1.00000
     36      -1.8603      1.00000
     37      -1.8053      1.00000
     38      -1.7480      1.00000
     39      -1.6752      1.00000
     40      -1.5113      1.00000
     41      -1.3826      1.00000
     42      -1.2834      1.00000
     43      -1.2154      1.00000
     44      -1.1373      1.00000
     45      -0.9037      1.00000
     46      -0.8006      1.00000
     47      -0.7606      1.00000
     48      -0.7313      1.00000
     49      -0.6047      1.00000
     50      -0.4695      1.00000
     51      -0.4151      1.00000
     52      -0.3625      1.00000
     53      -0.1721      1.00000
     54      -0.1268      1.00000
     55      -0.0516      1.00000
     56       0.0241      1.00000
     57       0.1157      1.00000
     58       0.1977      1.00000
     59       0.2496      1.00000
     60       0.3337      1.00000
     61       0.4609      1.00000
     62       0.5015      1.00000
     63       0.5632      1.00000
     64       0.6620      1.00000
     65       0.7410      1.00000
     66       0.8620      1.00000
     67       0.9146      1.00000
     68       1.0051      1.00000
     69       1.1698      1.00000
     70       1.2605      1.00000
     71       1.3741      1.00000
     72       1.4172      1.00000
     73       1.5468      1.00000
     74       1.6129      1.00000
     75       1.7545      1.00000
     76       1.8575      1.00000
     77       2.2997      1.00000
     78       2.6162      1.00000
     79       3.5577      0.00000
     80       3.7804      0.00000
     81       4.0235      0.00000
     82       4.1771      0.00000
     83       4.3595      0.00000
     84       4.5731      0.00000
     85       5.1057      0.00000
     86       5.3490      0.00000
     87       5.5958      0.00000
     88       5.6632      0.00000
     89       5.7392      0.00000
     90       5.9788      0.00000
     91       6.0430      0.00000
     92       6.1741      0.00000
     93       6.2212      0.00000
     94       6.2910      0.00000
     95       6.5136      0.00000
     96       6.6006      0.00000

 k-point  11 :       0.2857    0.0000    0.5000
  band No.  band energies     occupation 
      1     -15.8913      1.00000
      2     -15.8569      1.00000
      3     -15.2115      1.00000
      4     -15.1641      1.00000
      5     -15.0785      1.00000
      6     -14.9782      1.00000
      7     -14.9388      1.00000
      8     -14.8817      1.00000
      9     -14.7819      1.00000
     10     -14.7491      1.00000
     11     -14.6488      1.00000
     12     -14.6310      1.00000
     13     -14.5042      1.00000
     14     -14.2931      1.00000
     15     -14.2063      1.00000
     16     -14.0628      1.00000
     17      -4.1831      1.00000
     18      -3.8944      1.00000
     19      -3.5189      1.00000
     20      -3.3161      1.00000
     21      -3.2298      1.00000
     22      -3.2125      1.00000
     23      -2.9992      1.00000
     24      -2.9642      1.00000
     25      -2.8753      1.00000
     26      -2.6629      1.00000
     27      -2.6360      1.00000
     28      -2.5202      1.00000
     29      -2.4982      1.00000
     30      -2.4186      1.00000
     31      -2.3802      1.00000
     32      -2.3186      1.00000
     33      -2.2677      1.00000
     34      -2.2465      1.00000
     35      -2.1883      1.00000
     36      -2.0764      1.00000
     37      -2.0511      1.00000
     38      -1.9339      1.00000
     39      -1.8242      1.00000
     40      -1.7119      1.00000
     41      -1.6482      1.00000
     42      -1.5452      1.00000
     43      -1.5313      1.00000
     44      -1.4366      1.00000
     45      -1.1258      1.00000
     46      -1.0506      1.00000
     47      -0.9729      1.00000
     48      -0.8094      1.00000
     49      -0.7882      1.00000
     50      -0.6280      1.00000
     51      -0.5912      1.00000
     52      -0.5234      1.00000
     53      -0.4048      1.00000
     54      -0.3759      1.00000
     55      -0.2618      1.00000
     56      -0.1771      1.00000
     57      -0.0176      1.00000
     58       0.0588      1.00000
     59       0.1824      1.00000
     60       0.2131      1.00000
     61       0.3276      1.00000
     62       0.3765      1.00000
     63       0.5219      1.00000
     64       0.5660      1.00000
     65       0.6357      1.00000
     66       0.7179      1.00000
     67       0.7509      1.00000
     68       0.8667      1.00000
     69       1.0492      1.00000
     70       1.1164      1.00000
     71       1.1946      1.00000
     72       1.3397      1.00000
     73       1.4182      1.00000
     74       1.4393      1.00000
     75       1.5906      1.00000
     76       1.7638      1.00000
     77       2.1899      1.00000
     78       2.4714      1.00000
     79       3.4625      0.00000
     80       3.5177      0.00000
     81       3.8423      0.00000
     82       4.0424      0.00000
     83       4.1017      0.00000
     84       4.2849      0.00000
     85       5.2459      0.00000
     86       5.3589      0.00000
     87       5.5631      0.00000
     88       5.6913      0.00000
     89       5.7502      0.00000
     90       5.7988      0.00000
     91       6.0585      0.00000
     92       6.1831      0.00000
     93       6.3099      0.00000
     94       6.4165      0.00000
     95       6.4308      0.00000
     96       6.5838      0.00000

 k-point  12 :       0.4286    0.0000    0.5000
  band No.  band energies     occupation 
      1     -15.5016      1.00000
      2     -15.4885      1.00000
      3     -15.1798      1.00000
      4     -15.1436      1.00000
      5     -14.9186      1.00000
      6     -14.8171      1.00000
      7     -14.7439      1.00000
      8     -14.7385      1.00000
      9     -14.6925      1.00000
     10     -14.6687      1.00000
     11     -14.6304      1.00000
     12     -14.6219      1.00000
     13     -14.4225      1.00000
     14     -14.2166      1.00000
     15     -14.2113      1.00000
     16     -14.0631      1.00000
     17      -4.5061      1.00000
     18      -4.2302      1.00000
     19      -3.4023      1.00000
     20      -3.3682      1.00000
     21      -3.2760      1.00000
     22      -3.2583      1.00000
     23      -3.2224      1.00000
     24      -2.9190      1.00000
     25      -2.8927      1.00000
     26      -2.7654      1.00000
     27      -2.7190      1.00000
     28      -2.5420      1.00000
     29      -2.4753      1.00000
     30      -2.4558      1.00000
     31      -2.3711      1.00000
     32      -2.2895      1.00000
     33      -2.2073      1.00000
     34      -2.1436      1.00000
     35      -2.0222      1.00000
     36      -1.9119      1.00000
     37      -1.8085      1.00000
     38      -1.7812      1.00000
     39      -1.6618      1.00000
     40      -1.6157      1.00000
     41      -1.4712      1.00000
     42      -1.4390      1.00000
     43      -1.3523      1.00000
     44      -1.2769      1.00000
     45      -1.1270      1.00000
     46      -1.0460      1.00000
     47      -0.9986      1.00000
     48      -0.9290      1.00000
     49      -0.8051      1.00000
     50      -0.7762      1.00000
     51      -0.7053      1.00000
     52      -0.6626      1.00000
     53      -0.6097      1.00000
     54      -0.5561      1.00000
     55      -0.4732      1.00000
     56      -0.3121      1.00000
     57      -0.2673      1.00000
[...]
  0.000   0.000   0.000   0.000   0.000   0.000   0.000   0.000   0.000   0.000   0.000   0.000   0.000   0.000   0.000   0.000
  0.000   0.000   0.000   0.000   0.000   0.000   0.000   0.000   0.000   0.000   0.000   0.000   0.000   0.000   0.000   0.000
  0.000   0.000   0.000   0.000   0.000   0.000   0.000   0.000   0.000   0.000   1.000   0.000   0.000   0.000   0.000   0.000
  0.000   0.000   0.000   0.000   0.000   0.000   0.000   0.000   0.000   0.000   0.000   0.000   0.000   0.000   0.000   0.000
  0.000   0.000   0.000   0.000   0.000   0.000   0.000   0.000   0.000   0.000   0.000   0.000   0.000   0.000   0.000   0.000
  0.000   0.000   0.000   0.000   0.000   0.000   0.000   0.000   0.000   0.000   0.000   0.000   0.000   0.000   0.000   0.000
  0.000   0.000   0.000   0.000   0.000   0.000   0.000   0.000   0.000   0.000   0.000   0.000   0.000   0.000   0.000   0.000
  0.000   0.000   0.000   0.000   0.000   0.000   0.000   0.000   0.000   0.000   0.000   0.000   0.000   0.000   0.000   0.000
  0.000   0.000   0.000   0.000   0.000   0.000   0.000   0.000   0.000   0.000   0.000   0.000   0.000   0.000   0.000   0.000
  0.000   0.000   0.000   0.000   0.000   0.000   0.000   0.000   0.000   0.000   0.000   0.000   0.000   0.000   0.000   0.000
 total augmentation occupancy for first ion, spin component:           2
  0.514   0.000   0.000   0.000   0.000   0.000   0.000   0.000   0.000   0.000   0.000   0.000   0.000   0.000   0.000   0.000
  0.000   0.514   0.000   0.000   0.000   0.000   0.000   0.000   0.000   0.000   0.000   0.000   0.000   0.000   0.000   0.000
  0.000   0.000   0.514   0.000   0.000   0.000   0.000   0.000   0.000   0.000   0.000   0.000   0.000   0.000   0.000   0.000
  0.000   0.000   0.000   0.514   0.000   0.000   0.000   0.000   0.000   0.000   0.000   0.000   0.000   0.000   0.000   0.000
  0.000   0.000   0.000   0.000   0.514   0.000   0.000   0.000   0.000   0.000   0.000   0.000   0.000   0.000   0.000   0.000
  0.000   0.000   0.000   0.000   0.000   0.000   0.000   0.000   0.000   0.000   0.000   0.000   0.000   0.000   0.000   0.000
  0.000   0.000   0.000   0.000   0.000   0.000   0.000   0.000   0.000   0.000   0.000   0.000   0.000   0.000   0.000   0.000
  0.000   0.000   0.000   0.000   0.000   0.000   0.000   0.000   0.000   0.000   0.000   0.000   0.000   0.000   0.000   0.000
  0.000   0.000   0.000   0.000   0.000   0.000   0.000   0.000   0.000   0.000   0.000   0.000   0.000   0.000   0.000   0.000
  0.000   0.000   0.000   0.000   0.000   0.000   0.000   0.000   0.000   0.000   0.000   0.000   0.000   0.000   0.000   0.000
  0.000   0.000   0.000   0.000   0.000   0.000   0.000   0.000   0.000   0.000   0.429   0.000   0.000   0.000   0.000   0.000
  0.000   0.000   0.000   0.000   0.000   0.000   0.000   0.000   0.000   0.000   0.000   0.000   0.000   0.000   0.000   0.000
  0.000   0.000   0.000   0.000   0.000   0.000   0.000   0.000   0.000   0.000   0.000   0.000   0.000   0.000   0.000   0.000
  0.000   0.000   0.000   0.000   0.000   0.000   0.000   0.000   0.000   0.000   0.000   0.000   0.000   0.000   0.000   0.000
  0.000   0.000   0.000   0.000   0.000   0.000   0.000   0.000   0.000   0.000   0.000   0.000   0.000   0.000   0.000   0.000
  0.000   0.000   0.000   0.000   0.000   0.000   0.000   0.000   0.000   0.000   0.000   0.000   0.000   0.000   0.000   0.000
  0.000   0.000   0.000   0.000   0.000   0.000   0.000   0.000   0.000   0.000   0.000   0.000   0.000   0.000   0.000   0.000
  0.000   0.000   0.000   0.000   0.000   0.000   0.000   0.000   0.000   0.000   0.000   0.000   0.000   0.000   0.000   0.000


------------------------ aborting loop because EDIFF is reached ----------------------------------------


 


 total charge     
 
# of ion     s       p       d       tot
----------------------------------------
  1        0.297   0.406   4.806   5.509
  2        0.301   0.417   4.797   5.515
  3        0.340   0.519   4.792   5.651
  4        0.344   0.529   4.792   5.664
  5        0.300   0.411   4.807   5.518
  6        0.298   0.406   4.812   5.517
  7        0.340   0.513   4.791   5.644
  8        0.333   0.494   4.793   5.620
  9        1.576   3.408   0.000   4.984
 10        1.579   3.396   0.000   4.975
 11        1.558   3.475   0.000   5.033
 12        1.558   3.467   0.000   5.025
 13        1.573   3.417   0.000   4.990
 14        1.572   3.416   0.000   4.987
 15        1.560   3.467   0.000   5.027
 16        1.559   3.478   0.000   5.037
 17        1.567   3.459   0.000   5.026
 18        1.565   3.453   0.000   5.018
 19        1.565   3.466   0.000   5.031
 20        1.561   3.459   0.000   5.020
 21        1.570   3.444   0.000   5.014
 22        1.570   3.461   0.000   5.031
 23        1.560   3.459   0.000   5.019
 24        1.565   3.464   0.000   5.029
 25        0.104   0.213   0.000   0.317
 26        0.100   0.205   0.000   0.305
 27        0.106   0.218   0.000   0.325
 28        0.093   0.186   0.000   0.279
------------------------------------------------
tot       28.014  59.706  38.390 126.111
 


 magnetization (x)
 
# of ion     s       p       d       tot
----------------------------------------
  1        0.036   0.029   3.753   3.817
  2       -0.033  -0.027  -3.690  -3.750
  3        0.026   0.034   3.247   3.307
  4       -0.026  -0.035  -3.175  -3.235
  5        0.034   0.026   3.729   3.790
  6       -0.035  -0.029  -3.759  -3.823
  7        0.026   0.030   3.186   3.242
  8       -0.027  -0.028  -3.320  -3.375
  9        0.006  -0.116   0.000  -0.110
 10       -0.009   0.151   0.000   0.142
 11        0.001   0.004   0.000   0.005
 12       -0.001  -0.009   0.000  -0.009
 13        0.008  -0.105   0.000  -0.097
 14       -0.006   0.089   0.000   0.083
 15        0.000   0.006   0.000   0.007
 16       -0.001   0.000   0.000  -0.001
 17        0.001  -0.105   0.000  -0.104
 18       -0.002   0.091   0.000   0.090
 19       -0.004  -0.070   0.000  -0.074
 20        0.004   0.088   0.000   0.092
 21        0.001  -0.106   0.000  -0.105
 22       -0.000   0.114   0.000   0.114
 23       -0.005  -0.097   0.000  -0.101
 24        0.004   0.088   0.000   0.092
 25        0.001   0.002   0.000   0.003
 26       -0.000  -0.001   0.000  -0.001
 27        0.001  -0.003   0.000  -0.002
 28       -0.001   0.002   0.000   0.001
------------------------------------------------
tot        0.001   0.025  -0.030  -0.004
 
    CHARGE:  cpu time    0.22: real time    0.22
    FORLOC:  cpu time    0.00: real time    0.00
    FORNL :  cpu time    2.85: real time    2.85
    STRESS:  cpu time    3.52: real time    3.52
    FORCOR:  cpu time    0.04: real time    0.04
    FORHAR:  cpu time    0.01: real time    0.01

  FORCE on cell =-STRESS in cart. coord.  units (eV):
  Direction    XX          YY          ZZ          XY          YZ          ZX
  --------------------------------------------------------------------------------------
  Alpha Z   543.23214   543.23214   543.23214
  Ewald   -2671.13423 -1321.96598 -3748.09676    -0.00000    -0.00000  -495.10318
  Hartree  1096.87724  1856.98187   242.18560    -0.00000    -0.00000  -245.43668
  E(xc)    -761.16696  -761.48156  -761.80510    -0.00000     0.00000     0.14066
  Local    -705.53601 -2748.69861  1230.80878    -0.00000    -0.00000   715.10426
  n-local  -529.65642  -510.08074  -527.34911    -0.00010     0.00009   -10.59832
  augment   359.33526   348.57286   358.90342    -0.00000     0.00000     6.39773
  Kinetic  2667.99444  2593.27338  2662.25252     0.00039    -0.00022    29.40551
  Fock        0.00000     0.00000     0.00000     0.00000     0.00000     0.00000
  -------------------------------------------------------------------------------------
  Total      -0.05453    -0.16663     0.13149     0.00000     0.00000    -0.09002
  in kB      -0.30064    -0.91868     0.72496     0.00000     0.00000    -0.49631
  external pressure =       -0.16 kB  Pullay stress =        0.00 kB


 VOLUME and BASIS-vectors are now :
 -----------------------------------------------------------------------------
  energy-cutoff  :      520.00
  volume of cell :      290.61
      direct lattice vectors                 reciprocal lattice vectors
     0.000000000  2.905523818  0.000000000     0.000000000  0.344172019  0.000000000
     0.293184104  0.000000000 10.268810781    -0.002982187  0.000000000  0.097467404
     9.748543512  0.000000000  0.298273828     0.102669114  0.000000000 -0.002931299

  length of vectors
     2.905523818 10.272995268  9.753105551     0.344172019  0.097513016  0.102710952


 FORCES acting on ions
    electron-ion (+dipol)            ewald-force                    non-local-force                 convergence-correction
 -----------------------------------------------------------------------------------------------
   -.192E+02 -.287E-13 -.590E+01   0.184E+02 -.137E-13 0.515E+01   0.701E+00 0.348E-21 0.781E+00   0.114E+00 0.314E-13 -.402E-01
   -.921E+01 -.228E-13 -.319E+02   0.772E+01 -.696E-14 0.326E+02   0.131E+01 0.718E-22 -.702E+00   0.158E+00 -.264E-12 0.270E-02
   -.956E+02 -.209E-13 0.327E+02   0.970E+02 0.221E-13 -.327E+02   -.122E+01 -.193E-21 0.459E-01   -.133E+00 -.103E-13 -.926E-01
   -.865E+02 -.197E-13 -.122E+02   0.877E+02 0.667E-14 0.120E+02   -.108E+01 -.101E-21 0.790E-01   -.159E+00 0.820E-12 0.466E-01
   0.140E+02 0.617E-14 0.358E+02   -.120E+02 0.313E-13 -.364E+02   -.177E+01 0.838E-22 0.664E+00   -.168E+00 0.385E-13 -.308E-02
   0.881E+01 0.105E-13 -.100E+02   -.772E+01 0.369E-13 0.102E+02   -.951E+00 -.248E-21 -.204E+00   -.129E+00 0.408E-12 0.171E-01
   0.655E+02 0.295E-13 0.291E+02   -.675E+02 0.430E-13 -.295E+02   0.182E+01 0.866E-22 0.423E+00   0.187E+00 0.199E-12 -.698E-01
   0.738E+02 0.286E-13 -.240E+02   -.758E+02 -.469E-14 0.233E+02   0.185E+01 -.201E-21 0.626E+00   0.122E+00 0.769E-12 0.835E-01
   0.111E+03 0.297E-12 0.115E+03   -.121E+03 -.684E-14 -.127E+03   0.922E+01 0.655E-21 0.126E+02   0.110E+00 -.218E-12 -.499E-01
   0.995E+02 0.286E-12 0.684E+02   -.109E+03 0.252E-13 -.780E+02   0.914E+01 -.929E-21 0.944E+01   0.174E+00 -.231E-12 0.147E+00
   -.127E+02 0.335E-12 0.248E+01   0.994E+01 -.115E-13 -.180E+01   0.294E+01 -.559E-21 -.762E+00   -.192E+00 -.181E-11 0.698E-01
   -.224E+02 0.325E-12 -.105E+02   0.224E+02 -.190E-13 0.114E+02   0.161E+00 0.114E-20 -.103E+01   -.172E+00 -.990E-13 0.131E+00
   -.122E+03 0.390E-12 -.723E+02   0.134E+03 0.115E-13 0.803E+02   -.119E+02 0.856E-21 -.800E+01   -.143E+00 -.118E-12 -.865E-01
   -.121E+03 0.420E-12 -.108E+03   0.132E+03 -.560E-14 0.118E+03   -.106E+02 -.646E-21 -.104E+02   -.836E-01 -.259E-12 0.801E-01
   0.199E+02 0.371E-12 0.962E+01   -.209E+02 -.110E-13 -.103E+02   0.756E+00 0.153E-22 0.868E+00   0.174E+00 0.122E-11 -.138E+00
   0.110E+02 0.378E-12 -.631E+01   -.941E+01 -.896E-14 0.434E+01   -.177E+01 0.869E-22 0.208E+01   0.186E+00 -.857E-13 -.885E-01
   -.186E+02 0.308E-12 -.199E+03   0.174E+02 -.939E-14 0.214E+03   0.100E+01 -.110E-21 -.149E+02   0.130E+00 -.138E-12 -.488E-01
   -.992E+01 0.288E-12 -.236E+03   0.831E+01 -.601E-14 0.249E+03   0.158E+01 0.717E-21 -.138E+02   0.272E-01 -.726E-13 0.559E-01
   -.478E+02 0.311E-12 0.193E+03   0.554E+02 0.193E-15 -.204E+03   -.766E+01 -.136E-21 0.111E+02   0.142E-01 -.107E-12 -.962E-01
   -.506E+02 0.304E-12 0.168E+03   0.576E+02 0.554E-14 -.179E+03   -.702E+01 -.214E-20 0.115E+02   -.275E-02 0.185E-11 0.356E-02
   0.361E+02 0.422E-12 0.236E+03   -.400E+02 -.224E-13 -.251E+03   0.401E+01 -.594E-21 0.146E+02   -.381E-01 -.100E-12 -.355E-01
   0.326E+02 0.392E-12 0.199E+03   -.360E+02 0.333E-14 -.213E+03   0.350E+01 0.283E-21 0.143E+02   -.121E+00 -.183E-12 0.381E-01
   0.615E+02 0.413E-12 -.166E+03   -.678E+02 0.258E-13 0.177E+03   0.638E+01 -.309E-20 -.114E+02   -.220E-01 -.119E-12 0.191E-03
   0.686E+02 0.395E-12 -.189E+03   -.759E+02 0.812E-14 0.200E+03   0.736E+01 -.506E-21 -.110E+02   -.422E-01 -.176E-12 0.105E+00
   0.116E+02 0.140E-15 -.250E+01   -.120E+02 0.210E-14 0.285E+01   0.413E+00 0.121E-21 -.323E+00   0.519E-02 -.239E-15 -.117E-01
   -.626E+01 0.238E-14 0.373E+01   0.694E+01 0.283E-14 -.403E+01   -.669E+00 0.132E-21 0.293E+00   -.782E-02 0.748E-15 0.126E-01
   0.612E+00 -.279E-14 -.120E+02   -.580E+00 0.139E-14 0.122E+02   -.146E-01 -.766E-24 -.180E+00   -.555E-02 -.343E-15 -.299E-02
   0.212E+00 0.155E-14 -.134E+02   -.638E+00 -.219E-15 0.134E+02   0.438E+00 0.331E-22 -.113E-01   -.653E-02 0.217E-15 0.300E-02
 -----------------------------------------------------------------------------------------------
   -.787E+01 0.562E-11 -.656E+01   0.836E-13 0.996E-13 0.238E-12   0.790E+01 -.482E-20 0.652E+01   -.211E-01 0.134E-11 0.327E-01
 
 
 POSITION                                       TOTAL-FORCE (eV/Angst)
 -----------------------------------------------------------------------------------
      1.34035      0.72638      0.06110        -0.007530      0.000000     -0.009321
      1.46763      0.72638      5.43173        -0.019327      0.000000     -0.042461
      6.08070      0.72638      2.57256        -0.002524      0.000000     -0.016623
      6.33747      0.72638      7.62792        -0.014440     -0.000000     -0.008870
      8.43488      2.17914      5.17005         0.019809      0.000000      0.030348
      8.27990      2.17914      0.26978         0.010967     -0.000000     -0.004960
      3.47121      2.17914      2.93598         0.004449      0.000000      0.006939
      3.71727      2.17914      7.95829        -0.000933      0.000000      0.008017
      2.63264      0.72638      2.05475         0.004005      0.000000      0.009297
      2.92419      0.72638      7.03019         0.015336      0.000000      0.013763
      7.32506      0.72638      1.12350        -0.004561     -0.000000     -0.009826
      7.57118      0.72638      6.17883        -0.014726      0.000000     -0.024513
      6.84926      2.17914      3.56961        -0.003558     -0.000000     -0.004774
      7.14846      2.17914      8.59095        -0.008586      0.000000     -0.012941
      2.25724      2.17914      4.37825         0.005876      0.000000      0.033734
      2.47452      2.17914      9.39442         0.005298      0.000000      0.014555
      4.55718      0.72638      3.80971        -0.018336      0.000000     -0.008181
      4.82075      0.72638      8.88271        -0.008776      0.000000     -0.017406
      9.37690      0.72638      4.34952        -0.002090      0.000000     -0.019218
      9.41687      0.72638      9.52325        -0.003077     -0.000000      0.014590
      5.04669      2.17914      1.71314         0.005648      0.000000      0.007857
      5.31117      2.17914      6.79426         0.016956      0.000000      0.013704
      0.46458      2.17914      1.06809        -0.004538      0.000000     -0.003640
      0.51256      2.17914      6.24746         0.003318      0.000000      0.014669
      0.59156      0.72638      2.48845         0.000954      0.000000      0.010082
      9.30290      2.17914      8.11582         0.003063      0.000000     -0.000491
      5.34136      2.17914      4.94209         0.011851      0.000000      0.003174
      5.52464      2.17914     10.07492         0.005471      0.000000      0.002495
 -----------------------------------------------------------------------------------
    total drift:                                0.015493      0.000000     -0.007245


--------------------------------------------------------------------------------------------------------



  FREE ENERGIE OF THE ION-ELECTRON SYSTEM (eV)
  ---------------------------------------------------
  free  energy   TOTEN  =      -190.38155638 eV

  energy  without entropy=     -190.38155638  energy(sigma->0) =     -190.38155638
 


--------------------------------------------------------------------------------------------------------


    POTLOK:  cpu time    0.05: real time    0.05


--------------------------------------------------------------------------------------------------------


 writing wavefunctions
     LOOP+:  cpu time   66.99: real time   75.99
    4ORBIT:  cpu time    0.00: real time    0.00
 


 total charge     
 
# of ion     s       p       d       tot
----------------------------------------
  1        0.297   0.406   4.806   5.509
  2        0.301   0.417   4.797   5.515
  3        0.340   0.519   4.792   5.651
  4        0.344   0.529   4.792   5.664
  5        0.300   0.411   4.807   5.518
  6        0.298   0.406   4.812   5.517
  7        0.340   0.513   4.791   5.644
  8        0.333   0.494   4.793   5.620
  9        1.576   3.408   0.000   4.984
 10        1.579   3.396   0.000   4.975
 11        1.558   3.475   0.000   5.033
 12        1.558   3.467   0.000   5.025
 13        1.573   3.417   0.000   4.990
 14        1.572   3.416   0.000   4.987
 15        1.560   3.467   0.000   5.027
 16        1.559   3.478   0.000   5.037
 17        1.567   3.459   0.000   5.026
 18        1.565   3.453   0.000   5.018
 19        1.565   3.466   0.000   5.031
 20        1.561   3.459   0.000   5.020
 21        1.570   3.444   0.000   5.014
 22        1.570   3.461   0.000   5.031
 23        1.560   3.459   0.000   5.019
 24        1.565   3.464   0.000   5.029
 25        0.104   0.213   0.000   0.317
 26        0.100   0.205   0.000   0.305
 27        0.106   0.218   0.000   0.325
 28        0.093   0.186   0.000   0.279
------------------------------------------------
tot       28.014  59.706  38.390 126.111
 


 magnetization (x)
 
# of ion     s       p       d       tot
----------------------------------------
  1        0.036   0.029   3.753   3.817
  2       -0.033  -0.027  -3.690  -3.750
  3        0.026   0.034   3.247   3.307
  4       -0.026  -0.035  -3.175  -3.235
  5        0.034   0.026   3.729   3.790
  6       -0.035  -0.029  -3.759  -3.823
  7        0.026   0.030   3.186   3.242
  8       -0.027  -0.028  -3.320  -3.375
  9        0.006  -0.116   0.000  -0.110
 10       -0.009   0.151   0.000   0.142
 11        0.001   0.004   0.000   0.005
 12       -0.001  -0.009   0.000  -0.009
 13        0.008  -0.105   0.000  -0.097
 14       -0.006   0.089   0.000   0.083
 15        0.000   0.006   0.000   0.007
 16       -0.001   0.000   0.000  -0.001
 17        0.001  -0.105   0.000  -0.104
 18       -0.002   0.091   0.000   0.090
 19       -0.004  -0.070   0.000  -0.074
 20        0.004   0.088   0.000   0.092
 21        0.001  -0.106   0.000  -0.105
 22       -0.000   0.114   0.000   0.114
 23       -0.005  -0.097   0.000  -0.101
 24        0.004   0.088   0.000   0.092
 25        0.001   0.002   0.000   0.003
 26       -0.000  -0.001   0.000  -0.001
 27        0.001  -0.003   0.000  -0.002
 28       -0.001   0.002   0.000   0.001
------------------------------------------------
tot        0.001   0.025  -0.030  -0.004
 
 BZINTS: Fermi energy:  2.660343;156.000000 electrons
         Band energy:-587.593638;  BLOECHL correction:  0.000000

 total amount of memory used by VASP on root node    90936. kBytes
========================================================================

   base      :      30000. kBytes
   nonl-proj :      29145. kBytes
   fftplans  :       1686. kBytes
   grid      :       4406. kBytes
   one-center:        435. kBytes
   wavefun   :      25264. kBytes
 
  
  
 General timing and accounting informations for this job:
 ========================================================
  
                  Total CPU time used (sec):       70.773
                            User time (sec):       69.855
                          System time (sec):        0.918
                         Elapsed time (sec):       82.704
  
                   Maximum memory used (kb):      189752.
                   Average memory used (kb):           0.
  
                          Minor page faults:        19502
                          Major page faults:            0
                 Voluntary context switches:         2130
