 vasp.5.3.3 18Dez12 (build May 12 2016 12:04:25) complex                        
  
 executed on             LinuxIFC date 2019.03.14  12:36:49
 running on   80 total cores
 distrk:  each k-point on   80 cores,    1 groups
 distr:  one band on NCORES_PER_BAND=  10 cores,    8 groups


--------------------------------------------------------------------------------------------------------


 INCAR:
 POTCAR:   PAW_PBE Mn 06Sep2000                   
 POTCAR:   PAW_PBE O_s 07Sep2000                  
 POTCAR:    PAW_PBE Li 17Jan2003                  
 POTCAR:   PAW_PBE Mn 06Sep2000                   
  local pseudopotential read in
  partial core-charges read in
  atomic valenz-charges read in
  non local Contribution for L=           2  read in
    real space projection operators read in
  non local Contribution for L=           2  read in
    real space projection operators read in
  non local Contribution for L=           0  read in
    real space projection operators read in
  non local Contribution for L=           0  read in
    real space projection operators read in
  non local Contribution for L=           1  read in
    real space projection operators read in
  non local Contribution for L=           1  read in
    real space projection operators read in
    PAW grid and wavefunctions read in
 
   number of l-projection  operators is LMAX  =           6
   number of lm-projection operators is LMMAX =          18
 
 POTCAR:   PAW_PBE O_s 07Sep2000                  
  local pseudopotential read in
  atomic valenz-charges read in
  non local Contribution for L=           0  read in
    real space projection operators read in
  non local Contribution for L=           0  read in
    real space projection operators read in
  non local Contribution for L=           1  read in
    real space projection operators read in
  non local Contribution for L=           1  read in
    real space projection operators read in
    PAW grid and wavefunctions read in
 
   number of l-projection  operators is LMAX  =           4
   number of lm-projection operators is LMMAX =           8
 
 POTCAR:    PAW_PBE Li 17Jan2003                  
  local pseudopotential read in
  partial core-charges read in
  atomic valenz-charges read in
  non local Contribution for L=           0  read in
    real space projection operators read in
  non local Contribution for L=           0  read in
    real space projection operators read in
  non local Contribution for L=           1  read in
    real space projection operators read in
    PAW grid and wavefunctions read in
 
   number of l-projection  operators is LMAX  =           3
   number of lm-projection operators is LMMAX =           5
 

 ----------------------------------------------------------------------------- 
|                                                                             |
|  ADVICE TO THIS USER RUNNING 'VASP/VAMP'   (HEAR YOUR MASTER'S VOICE ...):  |
|                                                                             |
|      You have a (more or less) 'large supercell' and for larger cells       |
|      it might be more efficient to use real space projection operators      |
|      So try LREAL= Auto  in the INCAR   file.                               |
|      Mind: If you want to do a very accurate calculations keep the          |
|      reciprocal projection scheme          (i.e. LREAL=.FALSE.)             |
|                                                                             |
 ----------------------------------------------------------------------------- 

 PAW_PBE Mn 06Sep2000                   :
 energy of atom  1       EATOM= -416.8732
 kinetic energy error for atom=    0.0088 (will be added to EATOM!!)
 PAW_PBE O_s 07Sep2000                  :
 energy of atom  2       EATOM= -432.2909
 kinetic energy error for atom=    0.0164 (will be added to EATOM!!)
  PAW_PBE Li 17Jan2003                  :
 energy of atom  3       EATOM=   -5.3001
 kinetic energy error for atom=    0.0000 (will be added to EATOM!!)
 
 
 POSCAR: (Li2 Mn15 O30)2  (P1) ~ CONTCAR (VASP)  
  positions in direct lattice
  velocities in cartesian coordinates
 exchange correlation table for  LEXCH =        8
   RHO(1)=    0.500       N(1)  =     2000
   RHO(2)=  100.500       N(2)  =     4000
 


--------------------------------------------------------------------------------------------------------


 ion  position               nearest neighbor table
   1  0.072  0.258  0.603-  52 1.91  52 1.91  31 1.92  63 1.93  72 1.95  72 1.95  10 2.93  10 2.93

   2  0.058  0.255  0.469-  51 1.91  51 1.91  32 1.93  64 1.93  71 1.95  71 1.95   9 2.94   9 2.95

   3  0.967  0.757  0.023-  50 1.91  50 1.91  33 1.94  70 1.95  70 1.96  65 1.96   8 2.98   8 2.98

   4  0.052  0.253  0.334-  49 1.91  49 1.92  34 1.94  66 1.94  69 1.95  69 1.95   7 2.95   7 2.95

   5  0.975  0.753  0.161-  48 1.92  48 1.92  35 1.93  67 1.95  68 1.95  68 1.95   6 2.96   6 2.96

   6  0.035  0.252  0.198-  47 1.92  47 1.92  36 1.94  68 1.95  67 1.95  67 1.95   5 2.96   5 2.96

   7  0.961  0.752  0.298-  46 1.91  46 1.91  37 1.93  69 1.94  66 1.95  66 1.95   4 2.95   4 2.95

   8  0.033  0.256  0.060-  45 1.92  45 1.92  70 1.94  65 1.95  65 1.95  38 1.95   3 2.98   3 2.98

   9  0.953  0.755  0.433-  44 1.91  44 1.91  39 1.93  71 1.94  64 1.95  64 1.95   2 2.94   2 2.95

  10  0.959  0.758  0.567-  43 1.91  43 1.91  40 1.92  72 1.93  63 1.95  63 1.95   1 2.93   1 2.93

  11  0.444  0.256  0.670-  53 1.92  62 1.94  62 1.94  41 1.97  42 1.97  41 1.97  91 2.40  20 2.92
                            20 2.93
  12  0.460  0.257  0.537-  40 1.91  40 1.91  43 1.92  54 1.93  61 1.95  61 1.95  19 2.94  19 2.94

  13  0.453  0.254  0.402-  39 1.91  39 1.92  44 1.93  55 1.94  60 1.95  60 1.95  18 2.95  18 2.95

  14  0.534  0.755  0.092-  38 1.92  38 1.92  45 1.93  59 1.95  59 1.95  56 1.96  17 2.97  17 2.97

  15  0.461  0.252  0.266-  37 1.92  37 1.92  46 1.94  57 1.94  58 1.95  58 1.95  16 2.96  16 2.96

  16  0.534  0.752  0.229-  36 1.92  36 1.92  47 1.93  58 1.94  57 1.95  57 1.95  15 2.96  15 2.96

  17  0.476  0.254  0.129-  35 1.92  35 1.92  59 1.94  48 1.95  56 1.95  56 1.95  14 2.97  14 2.97

  18  0.552  0.753  0.365-  34 1.91  34 1.91  49 1.93  60 1.94  55 1.95  55 1.95  13 2.95  13 2.95

  19  0.559  0.756  0.500-  32 1.91  32 1.91  51 1.92  61 1.93  54 1.95  54 1.95  12 2.94  12 2.94

  20  0.570  0.758  0.634-  31 1.91  31 1.91  52 1.92  62 1.94  53 1.95  53 1.95  11 2.92  11 2.93

  21  0.969  0.750  0.704-  77 1.93  77 1.93  42 1.95  42 1.96  86 2.04  41 2.12  91 2.70  91 2.74
                            91 2.75  91 2.79
  22  0.976  0.758  0.771-  78 1.92  78 1.92  82 1.93  87 1.94  82 1.94  73 1.96
  23  0.973  0.762  0.833-  79 1.92  79 1.92  83 1.93  83 1.93  88 1.95  74 1.95
  24  0.971  0.762  0.896-  80 1.93  84 1.93  84 1.93  80 1.93  75 1.95  89 1.96
  25  0.968  0.760  0.959-  85 1.92  85 1.93  81 1.93  81 1.93  76 1.95  90 1.97
  26  0.476  0.254  0.740-  73 1.90  73 1.90  82 1.92  86 2.01  86 2.03  77 2.08  91 2.41
  27  0.474  0.261  0.802-  74 1.92  74 1.92  87 1.93  87 1.93  83 1.94  78 1.95
  28  0.472  0.262  0.864-  75 1.92  75 1.92  88 1.93  88 1.93  79 1.95  84 1.95
  29  0.471  0.261  0.928-  89 1.92  89 1.93  76 1.93  76 1.93  80 1.95  85 1.96
  30  0.469  0.258  0.991-  90 1.92  90 1.92  33 1.93  33 1.93  81 1.96  50 1.96
  31  0.404  0.258  0.620-  20 1.91  20 1.91   1 1.92
  32  0.382  0.256  0.487-  19 1.91  19 1.91   2 1.93
  33  0.647  0.758  0.005-  30 1.93  30 1.93   3 1.94
  34  0.372  0.253  0.352-  18 1.91  18 1.91   4 1.94
  35  0.677  0.753  0.141-  17 1.92  17 1.92   5 1.93
  36  0.337  0.252  0.217-  16 1.92  16 1.92   6 1.94
  37  0.648  0.752  0.279-  15 1.92  15 1.92   7 1.93
  38  0.333  0.255  0.080-  14 1.92  14 1.92   8 1.95
  39  0.629  0.754  0.415-  13 1.91  13 1.92   9 1.93
  40  0.635  0.757  0.550-  12 1.91  12 1.91  10 1.92
  41  0.618  0.754  0.685-  11 1.97  11 1.97  91 2.09  21 2.12  91 2.17
  42  0.133  0.252  0.689-  91 1.87  21 1.95  21 1.96  11 1.97
  43  0.135  0.258  0.554-  10 1.91  10 1.91  12 1.92
  44  0.129  0.254  0.420-   9 1.91   9 1.91  13 1.93
  45  0.834  0.756  0.072-   8 1.92   8 1.92  14 1.93
  46  0.148  0.252  0.285-   7 1.91   7 1.91  15 1.94
  47  0.838  0.752  0.210-   6 1.92   6 1.92  16 1.93
  48  0.177  0.253  0.149-   5 1.92   5 1.92  17 1.95
  49  0.873  0.753  0.348-   4 1.91   4 1.92  18 1.93
  50  0.160  0.257  0.011-   3 1.91   3 1.91  30 1.96
  51  0.883  0.755  0.483-   2 1.91   2 1.91  19 1.92
  52  0.903  0.758  0.617-   1 1.91   1 1.91  20 1.92
  53  0.727  0.257  0.649-  11 1.92  20 1.95  20 1.95
  54  0.727  0.256  0.515-  12 1.93  19 1.95  19 1.95
  55  0.719  0.253  0.380-  13 1.94  18 1.95  18 1.95
  56  0.293  0.754  0.115-  17 1.95  17 1.95  14 1.96
  57  0.712  0.252  0.244-  15 1.94  16 1.95  16 1.95
  58  0.285  0.752  0.252-  16 1.94  15 1.95  15 1.95
  59  0.716  0.254  0.106-  17 1.94  14 1.95  14 1.95
  60  0.286  0.754  0.387-  18 1.94  13 1.95  13 1.95
  61  0.292  0.757  0.522-  19 1.93  12 1.95  12 1.95
  62  0.287  0.757  0.655-  20 1.94  11 1.94  11 1.94
  63  0.796  0.258  0.582-   1 1.93  10 1.95  10 1.95
  64  0.788  0.255  0.448-   2 1.93   9 1.95   9 1.95
  65  0.213  0.756  0.046-   8 1.95   8 1.95   3 1.96
  66  0.790  0.252  0.312-   4 1.94   7 1.95   7 1.95
  67  0.216  0.752  0.184-   6 1.95   6 1.95   5 1.95
  68  0.793  0.253  0.175-   6 1.95   5 1.95   5 1.95
  69  0.222  0.753  0.320-   7 1.94   4 1.95   4 1.95
  70  0.790  0.257  0.037-   8 1.94   3 1.95   3 1.96
  71  0.223  0.755  0.454-   9 1.94   2 1.95   2 1.95
  72  0.233  0.758  0.588-  10 1.93   1 1.95   1 1.95
  73  0.650  0.755  0.753-  26 1.90  26 1.90  22 1.96
  74  0.639  0.761  0.816-  27 1.92  27 1.92  23 1.95
  75  0.639  0.762  0.879-  28 1.92  28 1.92  24 1.95
  76  0.639  0.760  0.942-  29 1.93  29 1.93  25 1.95
  77  0.799  0.250  0.719-  91 1.83  21 1.93  21 1.93  26 2.08
  78  0.807  0.259  0.784-  22 1.92  22 1.92  27 1.95
  79  0.805  0.262  0.847-  23 1.92  23 1.92  28 1.95
  80  0.802  0.261  0.910-  24 1.93  24 1.93  29 1.95
  81  0.800  0.259  0.974-  25 1.93  25 1.93  30 1.96
  82  0.139  0.257  0.756-  26 1.92  22 1.93  22 1.94
  83  0.138  0.262  0.819-  23 1.93  23 1.93  27 1.94
  84  0.139  0.262  0.882-  24 1.93  24 1.93  28 1.95
  85  0.140  0.260  0.946-  25 1.92  25 1.93  29 1.96
  86  0.314  0.751  0.723-  26 2.01  91 2.02  26 2.03  21 2.04  91 2.08
  87  0.311  0.760  0.787-  27 1.93  27 1.93  22 1.94
  88  0.305  0.762  0.850-  28 1.93  28 1.93  23 1.95
  89  0.301  0.761  0.914-  29 1.92  29 1.93  24 1.96
  90  0.296  0.758  0.978-  30 1.92  30 1.92  25 1.97
  91  0.464  0.236  0.705-  77 1.83  42 1.87  86 2.02  86 2.08  41 2.09  41 2.17  11 2.40  26 2.41
                            21 2.70  21 2.74  21 2.75  21 2.79
 
  LATTYP: Found a triclinic cell.
 ALAT       =     5.4903156056
 B/A-ratio  =     0.5350521248
 C/A-ratio  =    12.5572158194
 COS(alpha) =     0.0000346649
 COS(beta)  =     0.0580270902
 COS(gamma) =     0.5349762708
  
  Lattice vectors:
  
 A1 = (  -4.6384454177,   2.9374079966,  -0.0048803342)
 A2 = (   0.0001390228,   2.9376050268,  -0.0000546266)
 A3 = (  -4.6620716737,   0.0013314328, -68.7852679488)


Analysis of symmetry for initial positions (statically):
=====================================================================
 Subroutine PRICEL returns:
 Original cell was already a primitive cell.
 

 Routine SETGRP: Setting up the symmetry group for a 
 triclinic supercell.


 Subroutine GETGRP returns: Found  1 space group operations
 (whereof  1 operations were pure point group operations)
 out of a pool of  2 trial point group operations.


The static configuration has the point symmetry C_1 .


Analysis of symmetry for dynamics (positions and initial velocities):
=====================================================================
 Subroutine PRICEL returns:
 Original cell was already a primitive cell.
 

 Routine SETGRP: Setting up the symmetry group for a 
 triclinic supercell.


 Subroutine GETGRP returns: Found  1 space group operations
 (whereof  1 operations were pure point group operations)
 out of a pool of  2 trial point group operations.


The dynamic configuration has the point symmetry C_1 .


Analysis of magnetic symmetry:
=====================================================================

 Subroutine MAGSYM returns: Found  1 space group operations
 (whereof  1 operations were pure point group operations)
 out of a pool of  1 trial space group operations
 (whereof  1 operations were pure point group operations)
 and found also     1 'primitive' translations


The magnetic configuration has the point symmetry C_1 .


 irot  :   1
 --------------------------------------------------------------------
 isymop:   1   0   0
           0   1   0
           0   0   1

 gtrans:     0.0000000     0.0000000     0.0000000

 ptrans:     0.0000000     0.0000000     0.0000000
 rotmap:
 (   1->   1)  (   2->   2)  (   3->   3)  (   4->   4)  (   5->   5) 
 (   6->   6)  (   7->   7)  (   8->   8)  (   9->   9)  (  10->  10) 
 (  11->  11)  (  12->  12)  (  13->  13)  (  14->  14)  (  15->  15) 
 (  16->  16)  (  17->  17)  (  18->  18)  (  19->  19)  (  20->  20) 
 (  21->  21)  (  22->  22)  (  23->  23)  (  24->  24)  (  25->  25) 
 (  26->  26)  (  27->  27)  (  28->  28)  (  29->  29)  (  30->  30) 
 (  31->  31)  (  32->  32)  (  33->  33)  (  34->  34)  (  35->  35) 
 (  36->  36)  (  37->  37)  (  38->  38)  (  39->  39)  (  40->  40) 
 (  41->  41)  (  42->  42)  (  43->  43)  (  44->  44)  (  45->  45) 
 (  46->  46)  (  47->  47)  (  48->  48)  (  49->  49)  (  50->  50) 
 (  51->  51)  (  52->  52)  (  53->  53)  (  54->  54)  (  55->  55) 
 (  56->  56)  (  57->  57)  (  58->  58)  (  59->  59)  (  60->  60) 
 (  61->  61)  (  62->  62)  (  63->  63)  (  64->  64)  (  65->  65) 
 (  66->  66)  (  67->  67)  (  68->  68)  (  69->  69)  (  70->  70) 
 (  71->  71)  (  72->  72)  (  73->  73)  (  74->  74)  (  75->  75) 
 (  76->  76)  (  77->  77)  (  78->  78)  (  79->  79)  (  80->  80) 
 (  81->  81)  (  82->  82)  (  83->  83)  (  84->  84)  (  85->  85) 
 (  86->  86)  (  87->  87)  (  88->  88)  (  89->  89)  (  90->  90) 
 (  91->  91) 
 
 
 KPOINTS: Automatic mesh                          

Automatic generation of k-mesh.
Space group operators:
 irot       det(A)        alpha          n_x          n_y          n_z        tau_x        tau_y        tau_z
    1     1.000000     0.000000     1.000000     0.000000     0.000000     0.000000     0.000000     0.000000
 
 Subroutine IBZKPT returns following result:
 ===========================================
 
 Found      4 irreducible k-points:
 
 Following reciprocal coordinates:
            Coordinates               Weight
  0.000000  0.000000  0.000000      1.000000
  0.500000  0.000000 -0.000000      1.000000
 -0.000000  0.333333 -0.000000      2.000000
  0.500000  0.333333 -0.000000      2.000000
 
 Following cartesian coordinates:
            Coordinates               Weight
  0.000000  0.000000  0.000000      1.000000
  0.107792 -0.000005 -0.000037      1.000000
 -0.000005  0.113471  0.000003      2.000000
  0.107787  0.113466 -0.000034      2.000000
 


--------------------------------------------------------------------------------------------------------




 Dimension of arrays:
   k-points           NKPTS =      4   k-points in BZ     NKDIM =      4   number of bands    NBANDS=    408
   number of dos      NEDOS =    301   number of ions     NIONS =     91
   non local maximal  LDIM  =      6   non local SUM 2l+1 LMDIM =     18
   total plane-waves  NPLWV = 112896
   max r-space proj   IRMAX =      1   max aug-charges    IRDMAX=   4628
   dimension x,y,z NGX =    24 NGY =   14 NGZ =  336
   dimension x,y,z NGXF=    48 NGYF=   28 NGZF=  672
   support grid    NGXF=    48 NGYF=   28 NGZF=  672
   ions per type =              30  60   1
 NGX,Y,Z   is equivalent  to a cutoff of   8.60,  7.92,  8.12 a.u.
 NGXF,Y,Z  is equivalent  to a cutoff of  17.20, 15.85, 16.24 a.u.


 I would recommend the setting:
   dimension x,y,z NGX =    23 NGY =   14 NGZ =  336
 SYSTEM =  unknown system                          
 POSCAR =  (Li2 Mn15 O30)2  (P1) ~ CONTCAR (VASP)  

 Startparameter for this run:
   NWRITE =      1    write-flag & timer
   PREC   = normal    normal or accurate (medium, high low for compatibility)
   ISTART =      0    job   : 0-new  1-cont  2-samecut
   ICHARG =      2    charge: 1-file 2-atom 10-const
   ISPIN  =      2    spin polarized calculation?
   LNONCOLLINEAR =      F non collinear calculations
   LSORBIT =      F    spin-orbit coupling
   INIWAV =      1    electr: 0-lowe 1-rand  2-diag
   LASPH  =      F    aspherical Exc in radial PAW
   METAGGA=      F    non-selfconsistent MetaGGA calc.

 Electronic Relaxation 1
   ENCUT  =  400.0 eV  29.40 Ry    5.42 a.u.   7.56  4.79112.16*2*pi/ulx,y,z
   ENINI  =  400.0     initial cutoff
   ENAUG  =  500.7 eV  augmentation charge cutoff
   NELM   =     60;   NELMIN=  2; NELMDL= -5     # of ELM steps 
   EDIFF  = 0.1E-03   stopping-criterion for ELM
   LREAL  =      F    real-space projection
   NLSPLINE    = F    spline interpolate recip. space projectors
   LCOMPAT=      F    compatible to vasp.4.4
   GGA_COMPAT  = T    GGA compatible to vasp.4.4-vasp.4.6
   LMAXPAW     = -100 max onsite density
   LMAXMIX     =    4 max onsite mixed and CHGCAR
   VOSKOWN=      1    Vosko Wilk Nusair interpolation
   ROPT   =    0.00000   0.00000   0.00000
 Ionic relaxation
   EDIFFG = 0.1E-02   stopping-criterion for IOM
   NSW    =    151    number of steps for IOM
   NBLOCK =      1;   KBLOCK =    151    inner block; outer block 
   IBRION =      2    ionic relax: 0-MD 1-quasi-New 2-CG
   NFREE  =      1    steps in history (QN), initial steepest desc. (CG)
   ISIF   =      3    stress and relaxation
   IWAVPR =     11    prediction:  0-non 1-charg 2-wave 3-comb
   ISYM   =      2    0-nonsym 1-usesym 2-fastsym
   LCORR  =      T    Harris-Foulkes like correction to forces

   POTIM  = 0.5000    time-step for ionic-motion
   TEIN   =    0.0    initial temperature
   TEBEG  =    0.0;   TEEND  =   0.0 temperature during run
   SMASS  =  -3.00    Nose mass-parameter (am)
   estimated Nose-frequenzy (Omega)   =  0.10E-29 period in steps =****** mass=  -0.492E-27a.u.
   SCALEE = 1.0000    scale energy and forces
   NPACO  =    256;   APACO  = 16.0  distance and # of slots for P.C.
   PSTRESS=    0.0 pullay stress

  Mass of Ions in am
   POMASS =  54.94 16.00  7.01
  Ionic Valenz
   ZVAL   =   7.00  6.00  1.00
  Atomic Wigner-Seitz radii
   RWIGS  =  -1.00 -1.00 -1.00
  virtual crystal weights 
   VCA    =   1.00  1.00  1.00
   NELECT =     571.0000    total number of electrons
   NUPDOWN=      -1.0000    fix difference up-down

 DOS related values:
   EMIN   =  10.00;   EMAX   =-10.00  energy-range for DOS
   EFERMI =   0.00
   ISMEAR =     1;   SIGMA  =   0.20  broadening in eV -4-tet -1-fermi 0-gaus

 Electronic relaxation 2 (details)
   IALGO  =     38    algorithm
   LDIAG  =      T    sub-space diagonalisation (order eigenvalues)
   LSUBROT=      T    optimize rotation matrix (better conditioning)
   TURBO    =      0    0=normal 1=particle mesh
   IRESTART =      0    0=no restart 2=restart with 2 vectors
   NREBOOT  =      0    no. of reboots
   NMIN     =      0    reboot dimension
   EREF     =   0.00    reference energy to select bands
   IMIX   =      4    mixing-type and parameters
     AMIX     =   0.40;   BMIX     =  1.00
     AMIX_MAG =   1.60;   BMIX_MAG =  1.00
     AMIN     =   0.01
     WC   =   100.;   INIMIX=   1;  MIXPRE=   1;  MAXMIX= -45

 Intra band minimization:
   WEIMIN = 0.0010     energy-eigenvalue tresh-hold
   EBREAK =  0.61E-07  absolut break condition
   DEPER  =   0.30     relativ break condition  

   TIME   =   0.40     timestep for ELM

  volume/ion in A,a.u.               =      10.30        69.50
  Fermi-wavevector in a.u.,A,eV,Ry     =   1.387839  2.622635 26.206128  1.926096
  Thomas-Fermi vector in A             =   2.512022
 
 Write flags
   LWAVE  =      F    write WAVECAR
   LCHARG =      F    write CHGCAR
   LVTOT  =      F    write LOCPOT, total local potential
   LVHAR  =      F    write LOCPOT, Hartree potential only
   LELF   =      F    write electronic localiz. function (ELF)
   LORBIT =      0    0 simple, 1 ext, 2 COOP (PROOUT)


 Dipole corrections
   LMONO  =      F    monopole corrections only (constant potential shift)
   LDIPOL =      F    correct potential (dipole corrections)
   IDIPOL =      0    1-x, 2-y, 3-z, 4-all directions 
   EPSILON=  1.0000000 bulk dielectric constant

 LDA+U is selected, type is set to LDAUTYPE =  2
   angular momentum for each species LDAUL =     2   -1    0
   U (eV)           for each species LDAUU =   3.9  0.0  1.0
   J (eV)           for each species LDAUJ =   0.0  0.0  0.0
 Exchange correlation treatment:
   GGA     =    --    GGA type
   LEXCH   =     8    internal setting for exchange type
   VOSKOWN=      1    Vosko Wilk Nusair interpolation
   LHFCALC =     F    Hartree Fock is set to
   LHFONE  =     F    Hartree Fock one center treatment
   AEXX    =    0.0000 exact exchange contribution

 Linear response parameters
   LEPSILON=     F    determine dielectric tensor
   LRPA    =     F    only Hartree local field effects (RPA)
   LNABLA  =     F    use nabla operator in PAW spheres
   LVEL    =     F    velocity operator in full k-point grid
   LINTERFAST=   F  fast interpolation
   KINTER  =     0    interpolate to denser k-point grid
   CSHIFT  =0.1000    complex shift for real part using Kramers Kronig
   OMEGAMAX=  -1.0    maximum frequency
   DEG_THRESHOLD= 0.2000000E-02 threshold for treating states as degnerate
   RTIME   =    0.100 relaxation time in fs

 Orbital magnetization related:
   ORBITALMAG=     F  switch on orbital magnetization
   LCHIMAG   =     F  perturbation theory with respect to B field
   DQ        =  0.001000  dq finite difference perturbation B field



--------------------------------------------------------------------------------------------------------


 conjugate gradient relaxation of ions
 charge density and potential will be updated during run
 spin polarized calculation
 Variant of blocked Davidson
 Davidson routine will perform the subspace rotation
 perform sub-space diagonalisation
    after iterative eigenvector-optimisation
 modified Broyden-mixing scheme, WC =      100.0
 initial mixing is a Kerker type mixing with AMIX =  0.4000 and BMIX =      1.0000
 Hartree-type preconditioning will be used
 using additional bands          122
 reciprocal scheme for non local part
 use partial core corrections
 calculate Harris-corrections to forces 
   (improved forces if not selfconsistent)
 use gradient corrections 
 use of overlap-Matrix (Vanderbilt PP)
 Methfessel and Paxton  Order N= 1 SIGMA  =   0.20


--------------------------------------------------------------------------------------------------------


  energy-cutoff  :      400.00
  volume of cell :      937.22
      direct lattice vectors                 reciprocal lattice vectors
     4.638584441  0.000197030  0.004825708     0.215583088 -0.000010204 -0.000073618
     0.000139023  2.937605027 -0.000054627    -0.000014467  0.340413362  0.000007570
     0.023487233 -0.001528463 68.780442241    -0.000015126  0.000000271  0.014539022

  length of vectors
     4.638586955  2.937605031 68.780446268     0.215583101  0.340413362  0.014539030


 
 k-points in units of 2pi/SCALE and weight: Automatic mesh                          
   0.00000000  0.00000000  0.00000000       0.167
   0.10779154 -0.00000510 -0.00003681       0.167
  -0.00000482  0.11347112  0.00000252       0.333
   0.10778672  0.11346602 -0.00003429       0.333
 
 k-points in reciprocal lattice and weights: Automatic mesh                          
   0.00000000  0.00000000  0.00000000       0.167
   0.50000000  0.00000000 -0.00000000       0.167
  -0.00000000  0.33333333 -0.00000000       0.333
   0.50000000  0.33333333 -0.00000000       0.333
 
 position of ions in fractional coordinates (direct lattice) 
   0.07164159  0.25820513  0.60349271
   0.05836037  0.25517456  0.46939221
   0.96695493  0.75695599  0.02292941
   0.05213203  0.25266572  0.33436980
   0.97476890  0.75285040  0.16075161
   0.03480517  0.25242150  0.19795192
   0.96094397  0.75232787  0.29764579
   0.03321222  0.25581260  0.06030384
   0.95278364  0.75452855  0.43298322
   0.95944431  0.75792355  0.56736937
   0.44410106  0.25625721  0.66968526
   0.45951121  0.25701172  0.53666072
   0.45313445  0.25378527  0.40204208
   0.53377368  0.75456725  0.09190581
   0.46099999  0.25210322  0.26638559
   0.53445347  0.75213059  0.22937902
   0.47609760  0.25368737  0.12922125
   0.55203225  0.75322674  0.36545513
   0.55926282  0.75614428  0.50024954
   0.57025784  0.75758322  0.63391255
   0.96889946  0.74986822  0.70432289
   0.97586326  0.75837547  0.77060408
   0.97304544  0.76198218  0.83305441
   0.97054809  0.76159689  0.89600571
   0.96844413  0.75953022  0.95943438
   0.47642310  0.25411566  0.73963339
   0.47383447  0.26088731  0.80179078
   0.47181012  0.26213916  0.86445796
   0.47072708  0.26066938  0.92767377
   0.46895945  0.25831022  0.99123510
   0.40420833  0.25773473  0.62015456
   0.38174464  0.25591722  0.48706255
   0.64671853  0.75802863  0.00492210
   0.37246400  0.25309324  0.35237290
   0.67671283  0.75347606  0.14111060
   0.33741366  0.25215313  0.21742842
   0.64840331  0.75210557  0.27906924
   0.33277749  0.25475656  0.08018143
   0.62883077  0.75388820  0.41540088
   0.63502725  0.75717110  0.54997719
   0.61809137  0.75449229  0.68470896
   0.13290178  0.25156623  0.68911510
   0.13455165  0.25773139  0.55409034
   0.12868113  0.25433347  0.41967898
   0.83379637  0.75553472  0.07234440
   0.14793484  0.25223135  0.28502745
   0.83771902  0.75234273  0.21006459
   0.17707715  0.25294608  0.14911398
   0.87250280  0.75276259  0.34751901
   0.15999553  0.25718000  0.01071088
   0.88255255  0.75533357  0.48270161
   0.90348502  0.75811982  0.61728133
   0.72745124  0.25730147  0.64921476
   0.72665456  0.25625222  0.51510154
   0.71945167  0.25328512  0.38033207
   0.29341603  0.75382318  0.11531987
   0.71202461  0.25206162  0.24373230
   0.28476035  0.75209396  0.25210993
   0.71592750  0.25430960  0.10600463
   0.28626816  0.75365126  0.38721775
   0.29246179  0.75681267  0.52186827
   0.28730603  0.75671294  0.65464565
   0.79636132  0.25801096  0.58245175
   0.78810652  0.25464833  0.44798953
   0.21292179  0.75595160  0.04616343
   0.79014610  0.25240224  0.31238313
   0.21636422  0.75242307  0.18396644
   0.79273293  0.25274600  0.17487951
   0.22178436  0.75253639  0.31968588
   0.78968523  0.25669295  0.03739710
   0.22317301  0.75496177  0.45445147
   0.23347449  0.75808800  0.58845194
   0.64990017  0.75524694  0.75259001
   0.63915937  0.76109057  0.81585476
   0.63901835  0.76202989  0.87853977
   0.63900337  0.76040459  0.94181460
   0.79942539  0.25033231  0.71856491
   0.80652292  0.25892948  0.78445619
   0.80514267  0.26204703  0.84709284
   0.80194565  0.26141847  0.91010847
   0.79977629  0.25925921  0.97357462
   0.13904598  0.25738787  0.75595052
   0.13842875  0.26177978  0.81875055
   0.13912756  0.26167155  0.88190437
   0.14006769  0.25966558  0.94551377
   0.31372216  0.75105987  0.72273163
   0.31077505  0.76032964  0.78737722
   0.30509004  0.76212871  0.85029701
   0.30129952  0.76081633  0.91366569
   0.29607420  0.75849367  0.97755593
   0.46358769  0.23571327  0.70456269
 
 position of ions in cartesian coordinates  (Angst):
   0.34652585  0.75759638 41.50882722
   0.28176971  0.74889613 32.28527128
   4.48594586  2.22379320  1.58171975
   0.24970737  0.74173129 22.99834057
   4.52542811  2.21152346 11.06122936
   0.16613114  0.74121898 13.61537447
   4.46451522  2.20977653 20.47680541
   0.15550962  0.75139075  4.14787074
   4.42984184  2.21603279 29.78533391
   4.46389478  2.22580187 39.02850446
   2.07576494  0.75184638 46.06337743
   2.14412195  0.75426918 36.91396494
   2.11138054  0.74499565 27.65480516
   2.47821780  2.21658523  6.32385680
   2.14467907  0.74026336 18.32432939
   2.48459961  2.20921730 15.77932832
   2.21148925  0.74512960  8.89017831
   2.56933647  2.21223284 25.13878831
   2.60604240  2.22059883 34.41004185
   2.66018333  2.22462371 43.60349628
   4.51096881  2.20193102 48.44827449
   4.54482893  2.22682204 53.00715703
   4.53322549  2.23732111 57.30250481
   4.52311983  2.23609257 61.63231064
   4.51484992  2.22992415 65.99495320
   2.22733606  0.74545482 50.87459700
   2.21678931  0.76525171 55.14979683
   2.20887126  0.76883297 59.46006300
   2.20533205  0.76441851 63.80806935
   2.19862530  0.75739073 68.17983752
   1.88955601  0.75625459 42.65644128
   1.78223009  0.75111446 33.50220558
   3.00007948  2.22690860  0.34162371
   1.73601718  0.74302277 24.23814731
   3.14240863  2.21333270  9.70887405
   1.57026360  0.74046046 14.95643730
   3.01433265  2.20909032 19.19759334
   1.54553513  0.74831718  5.51650626
   2.92674604  2.21411474 28.57444940
   2.95865023  2.22355414 37.83069722
   2.88325582  2.21547558 47.09752631
   0.63269652  0.73797511 47.39826907
   0.63717907  0.75629263 38.11121374
   0.60679075  0.74651517 28.86631261
   3.86943910  2.21951631  4.97986199
   0.69293782  0.74054958 19.60501443
   3.89086882  2.20992977 14.45233710
   0.82492474  0.74286265 10.25696626
   4.05544482  2.21095992 23.90668051
   0.74244011  0.75550843  0.73745716
   4.10523687  2.21830778 33.20464766
   4.20549517  2.22629110 42.46120127
   3.38962801  0.75500113 44.65677493
   3.38278246  0.75212367 35.43240456
   3.34620546  0.74361208 26.16286633
   1.36384839  2.21431632  7.93312613
   3.30854594  0.74022524 16.76743779
   1.32691086  2.20902577 17.34156530
   3.32341528  0.74704019  7.29448640
   1.33707847  2.21339430 26.63434806
   1.36897117  2.22247667 35.89570069
   1.34817431  2.22197975 45.02816232
   3.70770527  0.75720094 40.06511779
   3.66625606  0.74752675 30.81670758
   0.98884505  2.22065862  3.17612763
   3.67253153  0.74113631 21.48964932
   1.00804916  2.21008323 12.65429580
   3.68130119  0.74235683 12.03210138
   1.03637863  2.21020976 21.98916534
   3.66393567  0.75416095  2.57598577
   1.04598563  2.21712885 31.25840880
   1.09691765  2.22610971 40.47507017
   3.03239805  2.21759497 51.76656900
   2.98406270  2.23466241 56.11789379
   2.98488096  2.23732593 60.42939590
   2.98629740  2.23245472 64.78146710
   3.72511408  0.73443667 49.42705638
   3.75958536  0.75959245 53.95912128
   3.75465455  0.76865455 58.26729114
   3.74130488  0.76671116 62.60151865
   3.73273248  0.76027068 66.96673823
   0.66276751  0.75497585 51.99526775
   0.66138004  0.76778144 56.31467856
   0.66610482  0.76736711 60.65842979
   0.67195940  0.76137733 65.03351694
   1.47230613  2.20527439 49.71127426
   1.46015532  2.23240593 54.15761164
   1.43526301  2.23759359 58.48523532
   1.41916851  2.23364074 62.84374276
   1.39643071  2.22671899 67.23811645
   2.16697165  0.69144694 48.46235778
 


--------------------------------------------------------------------------------------------------------


 k-point  1 :   0.0000 0.0000 0.0000  plane waves:   16987
 k-point  2 :   0.5000 0.0000-0.0000  plane waves:   17036
 k-point  3 :  -0.0000 0.3333-0.0000  plane waves:   17104
 k-point  4 :   0.5000 0.3333-0.0000  plane waves:   16967

 maximum and minimum number of plane-waves per node :      1744     1669

 maximum number of plane-waves:     17104
 maximum index in each direction: 
   IXMAX=    7   IYMAX=    4   IZMAX=  112
   IXMIN=   -8   IYMIN=   -5   IZMIN= -112

 WARNING: aliasing errors must be expected set NGX to  32 to avoid them
 WARNING: aliasing errors must be expected set NGY to  20 to avoid them
 WARNING: aliasing errors must be expected set NGZ to 450 to avoid them
 aliasing errors are usually negligible using standard VASP settings
 and one can safely disregard these warnings

 parallel 3D FFT for wavefunctions:
    minimum data exchange during FFTs selected (reduces bandwidth)
 parallel 3D FFT for charge:
    minimum data exchange during FFTs selected (reduces bandwidth)


 total amount of memory used by VASP on root node    51492. kBytes
========================================================================

   base      :      30000. kBytes
   nonl-proj :       5451. kBytes
   fftplans  :       1033. kBytes
   grid      :       2790. kBytes
   one-center:        311. kBytes
   wavefun   :      11907. kBytes
 
 Broyden mixing: mesh for mixing (old mesh)
   NGX = 15   NGY =  9   NGZ =225
  (NGX  = 48   NGY  = 28   NGZ  =672)
  gives a total of  30375 points

 initial charge density was supplied:
 charge density of overlapping atoms calculated
 number of electron     571.0000000 magnetization     120.0000000
 keeping initial charge density in first step


--------------------------------------------------------------------------------------------------------


 Maximum index for augmentation-charges          302 (set IRDMAX)


--------------------------------------------------------------------------------------------------------


 First call to EWALD:  gamma=   0.181
 Maximum number of real-space cells 5x 8x 1
 Maximum number of reciprocal cells 2x 1x16

 FEWALD executed in parallel
    FEWALD:  cpu time    0.00: real time    0.00


----------------------------------------- Iteration    1(   1)  ---------------------------------------


    POTLOK:  cpu time    0.06: real time    0.06
    SETDIJ:  cpu time    0.01: real time    0.01
     EDDAV:  cpu time    7.33: real time    7.34
       DOS:  cpu time    0.00: real time    0.00
    --------------------------------------------
      LOOP:  cpu time    7.40: real time    7.59

 eigenvalue-minimisations  :  6584
 total energy-change (2. order) : 0.7234877E+04  (-0.2049919E+05)
 number of electron     571.0000000 magnetization     120.0000000
 augmentation part      571.0000000 magnetization     120.0000000

 Free energy of the ion-electron system (eV)
  ---------------------------------------------------
  alpha Z        PSCENC =      2105.86851218
  Ewald energy   TEWEN  =    -28715.89492098
  -1/2 Hartree   DENC   =    -12043.31523381
  -exchange  EXHF       =         0.00000000
  -V(xc)+E(xc)   XCENC  =      1328.77993258
  PAW double counting   =     27278.96092844   -26863.34055171
  entropy T*S    EENTRO =        -0.00408004
  eigenvalues    EBANDS =      5696.12281090
  atomic energy  EATOM  =     38447.69961849
  ---------------------------------------------------
  free energy    TOTEN  =      7234.87701604 eV

  energy without entropy =     7234.88109609  energy(sigma->0) =     7234.87837606


--------------------------------------------------------------------------------------------------------




----------------------------------------- Iteration    1(   2)  ---------------------------------------


     EDDAV:  cpu time    7.47: real time    7.47
       DOS:  cpu time    0.00: real time    0.00
    --------------------------------------------
      LOOP:  cpu time    7.47: real time    7.56

 eigenvalue-minimisations  :  6728
 total energy-change (2. order) :-0.6890583E+04  (-0.6306526E+04)
 number of electron     571.0000000 magnetization     120.0000000
 augmentation part      571.0000000 magnetization     120.0000000

 Free energy of the ion-electron system (eV)
  ---------------------------------------------------
  alpha Z        PSCENC =      2105.86851218
  Ewald energy   TEWEN  =    -28715.89492098
  -1/2 Hartree   DENC   =    -12043.31523381
  -exchange  EXHF       =         0.00000000
  -V(xc)+E(xc)   XCENC  =      1328.77993258
  PAW double counting   =     27278.96092844   -26863.34055171
  entropy T*S    EENTRO =         0.00771145
  eigenvalues    EBANDS =     -1194.47239545
  atomic energy  EATOM  =     38447.69961849
  ---------------------------------------------------
  free energy    TOTEN  =       344.29360119 eV

  energy without entropy =      344.28588974  energy(sigma->0) =      344.29103071


--------------------------------------------------------------------------------------------------------




----------------------------------------- Iteration    1(   3)  ---------------------------------------


     EDDAV:  cpu time    7.52: real time    7.52
       DOS:  cpu time    0.00: real time    0.00
    --------------------------------------------
      LOOP:  cpu time    7.52: real time    7.61

 eigenvalue-minimisations  :  6768
 total energy-change (2. order) :-0.1134592E+04  (-0.1030497E+04)
 number of electron     571.0000000 magnetization     120.0000000
 augmentation part      571.0000000 magnetization     120.0000000

 Free energy of the ion-electron system (eV)
  ---------------------------------------------------
  alpha Z        PSCENC =      2105.86851218
  Ewald energy   TEWEN  =    -28715.89492098
  -1/2 Hartree   DENC   =    -12043.31523381
  -exchange  EXHF       =         0.00000000
  -V(xc)+E(xc)   XCENC  =      1328.77993258
  PAW double counting   =     27278.96092844   -26863.34055171
  entropy T*S    EENTRO =         0.02207058
  eigenvalues    EBANDS =     -2329.07862774
  atomic energy  EATOM  =     38447.69961849
  ---------------------------------------------------
  free energy    TOTEN  =      -790.29827197 eV

  energy without entropy =     -790.32034255  energy(sigma->0) =     -790.30562883


--------------------------------------------------------------------------------------------------------




----------------------------------------- Iteration    1(   4)  ---------------------------------------


     EDDAV:  cpu time    9.20: real time    9.21
       DOS:  cpu time    0.00: real time    0.00
    --------------------------------------------
      LOOP:  cpu time    9.21: real time    9.42

 eigenvalue-minimisations  :  8872
 total energy-change (2. order) :-0.7505689E+02  (-0.7357243E+02)
 number of electron     571.0000000 magnetization     120.0000000
 augmentation part      571.0000000 magnetization     120.0000000

 Free energy of the ion-electron system (eV)
  ---------------------------------------------------
  alpha Z        PSCENC =      2105.86851218
  Ewald energy   TEWEN  =    -28715.89492098
  -1/2 Hartree   DENC   =    -12043.31523381
  -exchange  EXHF       =         0.00000000
  -V(xc)+E(xc)   XCENC  =      1328.77993258
  PAW double counting   =     27278.96092844   -26863.34055171
  entropy T*S    EENTRO =         0.02408661
  eigenvalues    EBANDS =     -2404.13753655
  atomic energy  EATOM  =     38447.69961849
  ---------------------------------------------------
  free energy    TOTEN  =      -865.35516474 eV

  energy without entropy =     -865.37925136  energy(sigma->0) =     -865.36319361


--------------------------------------------------------------------------------------------------------




----------------------------------------- Iteration    1(   5)  ---------------------------------------


     EDDAV:  cpu time    9.57: real time    9.58
       DOS:  cpu time    0.00: real time    0.00
    CHARGE:  cpu time    0.18: real time    0.18
    MIXING:  cpu time    0.00: real time    0.00
    --------------------------------------------
      LOOP:  cpu time    9.76: real time    9.87

 eigenvalue-minimisations  :  9336
 total energy-change (2. order) :-0.1874513E+01  (-0.1868711E+01)
 number of electron     571.0000495 magnetization     119.6159924
 augmentation part      161.5782188 magnetization      84.3146888

 Broyden mixing:
  rms(total) = 0.10322E+02    rms(broyden)= 0.10316E+02
  rms(prec ) = 0.10409E+02
  weight for this iteration     100.00

 Free energy of the ion-electron system (eV)
  ---------------------------------------------------
  alpha Z        PSCENC =      2105.86851218
  Ewald energy   TEWEN  =    -28715.89492098
  -1/2 Hartree   DENC   =    -12043.31523381
  -exchange  EXHF       =         0.00000000
  -V(xc)+E(xc)   XCENC  =      1328.77993258
  PAW double counting   =     27278.96092844   -26863.34055171
  entropy T*S    EENTRO =         0.02377542
  eigenvalues    EBANDS =     -2406.01173806
  atomic energy  EATOM  =     38447.69961849
  ---------------------------------------------------
  free energy    TOTEN  =      -867.22967745 eV

  energy without entropy =     -867.25345287  energy(sigma->0) =     -867.23760259


--------------------------------------------------------------------------------------------------------




----------------------------------------- Iteration    1(   6)  ---------------------------------------


    POTLOK:  cpu time    0.05: real time    0.05
    SETDIJ:  cpu time    0.01: real time    0.01
     EDDAV:  cpu time    9.80: real time    9.80
       DOS:  cpu time    0.00: real time    0.00
    CHARGE:  cpu time    0.18: real time    0.18
    MIXING:  cpu time    0.00: real time    0.00
    --------------------------------------------
      LOOP:  cpu time   10.05: real time   10.16

 eigenvalue-minimisations  :  9624
 total energy-change (2. order) : 0.1265529E+03  (-0.1358588E+03)
 number of electron     570.9999946 magnetization     119.3812273
 augmentation part      192.2658292 magnetization      92.8561663

 Broyden mixing:
  rms(total) = 0.12469E+02    rms(broyden)= 0.12465E+02
  rms(prec ) = 0.12630E+02
  weight for this iteration     100.00

 eigenvalues of (default mixing * dielectric matrix)
  average eigenvalue GAMMA=   0.4460
  0.4460

 Free energy of the ion-electron system (eV)
  ---------------------------------------------------
  alpha Z        PSCENC =      2105.86851218
  Ewald energy   TEWEN  =    -28715.89492098
  -1/2 Hartree   DENC   =    -12365.77265208
  -exchange  EXHF       =         0.00000000
  -V(xc)+E(xc)   XCENC  =      1406.74188834
  PAW double counting   =     29474.05810444   -29023.15576275
  entropy T*S    EENTRO =         0.00646356
  eigenvalues    EBANDS =     -2070.22807388
  atomic energy  EATOM  =     38447.69961849
  ---------------------------------------------------
  free energy    TOTEN  =      -740.67682268 eV

  energy without entropy =     -740.68328624  energy(sigma->0) =     -740.67897720


--------------------------------------------------------------------------------------------------------




----------------------------------------- Iteration    1(   7)  ---------------------------------------


    POTLOK:  cpu time    0.05: real time    0.05
    SETDIJ:  cpu time    0.01: real time    0.01
     EDDAV:  cpu time    9.17: real time    9.18
       DOS:  cpu time    0.00: real time    0.00
    CHARGE:  cpu time    0.19: real time    0.19
    MIXING:  cpu time    0.00: real time    0.00
    --------------------------------------------
      LOOP:  cpu time    9.42: real time    9.55

 eigenvalue-minimisations  :  8816
 total energy-change (2. order) : 0.9469123E+02  (-0.4556963E+02)
 number of electron     571.0000284 magnetization     119.2298429
 augmentation part      162.0557397 magnetization      89.5781075

 Broyden mixing:
  rms(total) = 0.46588E+01    rms(broyden)= 0.46529E+01
  rms(prec ) = 0.49014E+01
  weight for this iteration     100.00

 eigenvalues of (default mixing * dielectric matrix)
  average eigenvalue GAMMA=   0.4101
  0.5599  0.2603

 Free energy of the ion-electron system (eV)
  ---------------------------------------------------
  alpha Z        PSCENC =      2105.86851218
  Ewald energy   TEWEN  =    -28715.89492098
  -1/2 Hartree   DENC   =    -12301.76247328
  -exchange  EXHF       =         0.00000000
  -V(xc)+E(xc)   XCENC  =      1365.72664693
  PAW double counting   =     29682.34322912   -29326.15463431
  entropy T*S    EENTRO =        -0.04283558
  eigenvalues    EBANDS =     -1903.76873429
  atomic energy  EATOM  =     38447.69961849
  ---------------------------------------------------
  free energy    TOTEN  =      -645.98559173 eV

  energy without entropy =     -645.94275615  energy(sigma->0) =     -645.97131320


--------------------------------------------------------------------------------------------------------




----------------------------------------- Iteration    1(   8)  ---------------------------------------


    POTLOK:  cpu time    0.05: real time    0.05
    SETDIJ:  cpu time    0.01: real time    0.01
     EDDAV:  cpu time    9.63: real time    9.63
       DOS:  cpu time    0.00: real time    0.00
    CHARGE:  cpu time    0.18: real time    0.18
    MIXING:  cpu time    0.00: real time    0.00
    --------------------------------------------
      LOOP:  cpu time    9.89: real time   10.13

 eigenvalue-minimisations  :  9408
 total energy-change (2. order) : 0.9167843E+01  (-0.8992812E+01)
 number of electron     571.0000294 magnetization     119.0830755
 augmentation part      163.7312354 magnetization      89.6397542

 Broyden mixing:
  rms(total) = 0.35904E+01    rms(broyden)= 0.35896E+01
  rms(prec ) = 0.36166E+01
  weight for this iteration     100.00

 eigenvalues of (default mixing * dielectric matrix)
  average eigenvalue GAMMA=   0.4059
  0.6076  0.3050  0.3050

 Free energy of the ion-electron system (eV)
  ---------------------------------------------------
  alpha Z        PSCENC =      2105.86851218
  Ewald energy   TEWEN  =    -28715.89492098
  -1/2 Hartree   DENC   =    -12261.72025007
  -exchange  EXHF       =         0.00000000
  -V(xc)+E(xc)   XCENC  =      1371.36041233
  PAW double counting   =     29921.18390873   -29568.75721497
  entropy T*S    EENTRO =         0.02359940
  eigenvalues    EBANDS =     -1936.58141405
  atomic energy  EATOM  =     38447.69961849
  ---------------------------------------------------
  free energy    TOTEN  =      -636.81774894 eV

  energy without entropy =     -636.84134834  energy(sigma->0) =     -636.82561540


--------------------------------------------------------------------------------------------------------




----------------------------------------- Iteration    1(   9)  ---------------------------------------


    POTLOK:  cpu time    0.05: real time    0.05
    SETDIJ:  cpu time    0.01: real time    0.01
     EDDAV:  cpu time    9.42: real time    9.42
       DOS:  cpu time    0.00: real time    0.00
    CHARGE:  cpu time    0.18: real time    0.18
    MIXING:  cpu time    0.00: real time    0.00
    --------------------------------------------
      LOOP:  cpu time    9.68: real time    9.80

 eigenvalue-minimisations  :  9136
 total energy-change (2. order) : 0.8467729E+01  (-0.8811905E+00)
 number of electron     571.0000271 magnetization     118.7163397
 augmentation part      165.1046212 magnetization      90.1367568

 Broyden mixing:
  rms(total) = 0.27159E+01    rms(broyden)= 0.27158E+01
  rms(prec ) = 0.27360E+01
  weight for this iteration     100.00

 eigenvalues of (default mixing * dielectric matrix)
  average eigenvalue GAMMA=   0.5759
  0.7895  0.7895  0.4182  0.3064

 Free energy of the ion-electron system (eV)
  ---------------------------------------------------
  alpha Z        PSCENC =      2105.86851218
  Ewald energy   TEWEN  =    -28715.89492098
  -1/2 Hartree   DENC   =    -12254.05293553
  -exchange  EXHF       =         0.00000000
  -V(xc)+E(xc)   XCENC  =      1376.92136656
  PAW double counting   =     30181.28424627   -29829.49346260
  entropy T*S    EENTRO =         0.00680936
  eigenvalues    EBANDS =     -1940.68925410
  atomic energy  EATOM  =     38447.69961849
  ---------------------------------------------------
  free energy    TOTEN  =      -628.35002034 eV

  energy without entropy =     -628.35682970  energy(sigma->0) =     -628.35229013


--------------------------------------------------------------------------------------------------------




----------------------------------------- Iteration    1(  10)  ---------------------------------------


    POTLOK:  cpu time    0.05: real time    0.05
    SETDIJ:  cpu time    0.01: real time    0.01
     EDDAV:  cpu time    9.84: real time    9.84
       DOS:  cpu time    0.00: real time    0.00
    CHARGE:  cpu time    0.18: real time    0.18
    MIXING:  cpu time    0.00: real time    0.00
    --------------------------------------------
      LOOP:  cpu time   10.10: real time   10.21

 eigenvalue-minimisations  :  9696
 total energy-change (2. order) : 0.5705959E+01  (-0.1166199E+01)
 number of electron     571.0000246 magnetization     118.3907300
 augmentation part      168.1526542 magnetization      89.7507507

 Broyden mixing:
  rms(total) = 0.24285E+01    rms(broyden)= 0.24268E+01
  rms(prec ) = 0.32545E+01
  weight for this iteration     100.00

 eigenvalues of (default mixing * dielectric matrix)
  average eigenvalue GAMMA=   0.5876
  1.0113  1.0113  0.3925  0.2614  0.2614

 Free energy of the ion-electron system (eV)
  ---------------------------------------------------
  alpha Z        PSCENC =      2105.86851218
  Ewald energy   TEWEN  =    -28715.89492098
  -1/2 Hartree   DENC   =    -12246.63802872
  -exchange  EXHF       =         0.00000000
  -V(xc)+E(xc)   XCENC  =      1388.79015805
  PAW double counting   =     30685.82785027   -30337.45419623
  entropy T*S    EENTRO =         0.02325481
  eigenvalues    EBANDS =     -1950.86630890
  atomic energy  EATOM  =     38447.69961849
  ---------------------------------------------------
  free energy    TOTEN  =      -622.64406103 eV

  energy without entropy =     -622.66731584  energy(sigma->0) =     -622.65181263


--------------------------------------------------------------------------------------------------------




----------------------------------------- Iteration    1(  11)  ---------------------------------------


    POTLOK:  cpu time    0.05: real time    0.05
    SETDIJ:  cpu time    0.01: real time    0.01
     EDDAV:  cpu time    9.62: real time    9.63
       DOS:  cpu time    0.00: real time    0.00
    CHARGE:  cpu time    0.18: real time    0.18
    MIXING:  cpu time    0.00: real time    0.00
    --------------------------------------------
      LOOP:  cpu time    9.87: real time   10.00

 eigenvalue-minimisations  :  9392
 total energy-change (2. order) : 0.4494887E+01  (-0.1834329E+01)
 number of electron     571.0000222 magnetization     117.9096512
 augmentation part      168.4746701 magnetization      91.4046642

 Broyden mixing:
  rms(total) = 0.13509E+01    rms(broyden)= 0.13496E+01
  rms(prec ) = 0.13602E+01
  weight for this iteration     100.00

 eigenvalues of (default mixing * dielectric matrix)
  average eigenvalue GAMMA=   0.6523
  1.3038  1.3038  0.4348  0.3388  0.3388  0.1937

 Free energy of the ion-electron system (eV)
  ---------------------------------------------------
  alpha Z        PSCENC =      2105.86851218
  Ewald energy   TEWEN  =    -28715.89492098
  -1/2 Hartree   DENC   =    -12246.87825335
  -exchange  EXHF       =         0.00000000
  -V(xc)+E(xc)   XCENC  =      1400.11332349
  PAW double counting   =     31124.61388344   -30778.75689093
  entropy T*S    EENTRO =         0.02959733
  eigenvalues    EBANDS =     -1954.94404406
  atomic energy  EATOM  =     38447.69961849
  ---------------------------------------------------
  free energy    TOTEN  =      -618.14917438 eV

  energy without entropy =     -618.17877171  energy(sigma->0) =     -618.15904016


--------------------------------------------------------------------------------------------------------




----------------------------------------- Iteration    1(  12)  ---------------------------------------


    POTLOK:  cpu time    0.05: real time    0.05
    SETDIJ:  cpu time    0.01: real time    0.01
     EDDAV:  cpu time    9.33: real time    9.34
       DOS:  cpu time    0.00: real time    0.00
    CHARGE:  cpu time    0.18: real time    0.18
    MIXING:  cpu time    0.00: real time    0.00
    --------------------------------------------
      LOOP:  cpu time    9.59: real time    9.69

 eigenvalue-minimisations  :  9008
 total energy-change (2. order) : 0.2159005E+01  (-0.6792452E+00)
 number of electron     571.0000210 magnetization     117.5013586
 augmentation part      170.0384355 magnetization      92.3433569

 Broyden mixing:
  rms(total) = 0.12569E+01    rms(broyden)= 0.12563E+01
  rms(prec ) = 0.12617E+01
  weight for this iteration     100.00

 eigenvalues of (default mixing * dielectric matrix)
  average eigenvalue GAMMA=   0.7437
  1.6168  1.6168  0.5564  0.5564  0.3409  0.2830  0.2356

 Free energy of the ion-electron system (eV)
  ---------------------------------------------------
  alpha Z        PSCENC =      2105.86851218
  Ewald energy   TEWEN  =    -28715.89492098
  -1/2 Hartree   DENC   =    -12237.29440799
  -exchange  EXHF       =         0.00000000
  -V(xc)+E(xc)   XCENC  =      1411.57499552
  PAW double counting   =     31596.16784454   -31254.92738456
  entropy T*S    EENTRO =         0.03407407
  eigenvalues    EBANDS =     -1969.21850100
  atomic energy  EATOM  =     38447.69961849
  ---------------------------------------------------
  free energy    TOTEN  =      -615.99016973 eV

  energy without entropy =     -616.02424380  energy(sigma->0) =     -616.00152776


--------------------------------------------------------------------------------------------------------




----------------------------------------- Iteration    1(  13)  ---------------------------------------


    POTLOK:  cpu time    0.05: real time    0.05
    SETDIJ:  cpu time    0.01: real time    0.01
     EDDAV:  cpu time    9.81: real time    9.81
       DOS:  cpu time    0.00: real time    0.00
    CHARGE:  cpu time    0.18: real time    0.18
    MIXING:  cpu time    0.00: real time    0.00
    --------------------------------------------
      LOOP:  cpu time   10.06: real time   10.18

 eigenvalue-minimisations  :  9600
 total energy-change (2. order) : 0.3433681E-01  (-0.2247544E+00)
 number of electron     571.0000216 magnetization     117.3052913
 augmentation part      170.0879929 magnetization      92.5677774

 Broyden mixing:
  rms(total) = 0.10949E+01    rms(broyden)= 0.10946E+01
  rms(prec ) = 0.11179E+01
  weight for this iteration     100.00

 eigenvalues of (default mixing * dielectric matrix)
  average eigenvalue GAMMA=   0.7382
  1.7164  1.7164  0.5862  0.5862  0.4359  0.3255  0.3255  0.2133

 Free energy of the ion-electron system (eV)
  ---------------------------------------------------
  alpha Z        PSCENC =      2105.86851218
  Ewald energy   TEWEN  =    -28715.89492098
  -1/2 Hartree   DENC   =    -12227.52989462
  -exchange  EXHF       =         0.00000000
  -V(xc)+E(xc)   XCENC  =      1414.91129895
  PAW double counting   =     31759.93330059   -31423.73318086
  entropy T*S    EENTRO =         0.03394481
  eigenvalues    EBANDS =     -1977.24451148
  atomic energy  EATOM  =     38447.69961849
  ---------------------------------------------------
  free energy    TOTEN  =      -615.95583292 eV

  energy without entropy =     -615.98977773  energy(sigma->0) =     -615.96714786


--------------------------------------------------------------------------------------------------------




----------------------------------------- Iteration    1(  14)  ---------------------------------------


    POTLOK:  cpu time    0.05: real time    0.05
    SETDIJ:  cpu time    0.01: real time    0.01
     EDDAV:  cpu time    9.22: real time    9.22
       DOS:  cpu time    0.00: real time    0.00
    CHARGE:  cpu time    0.18: real time    0.18
    MIXING:  cpu time    0.00: real time    0.00
    --------------------------------------------
      LOOP:  cpu time    9.47: real time    9.60

 eigenvalue-minimisations  :  8888
 total energy-change (2. order) :-0.3929215E+00  (-0.1613401E+00)
 number of electron     571.0000219 magnetization     117.0349135
 augmentation part      169.9650121 magnetization      92.1352252

 Broyden mixing:
  rms(total) = 0.10136E+01    rms(broyden)= 0.10135E+01
  rms(prec ) = 0.10290E+01
  weight for this iteration     100.00

 eigenvalues of (default mixing * dielectric matrix)
  average eigenvalue GAMMA=   0.7385
  1.7872  1.7872  0.7053  0.7053  0.4777  0.3402  0.3402  0.2183  0.2856

 Free energy of the ion-electron system (eV)
  ---------------------------------------------------
  alpha Z        PSCENC =      2105.86851218
  Ewald energy   TEWEN  =    -28715.89492098
  -1/2 Hartree   DENC   =    -12223.81021899
  -exchange  EXHF       =         0.00000000
  -V(xc)+E(xc)   XCENC  =      1414.93349533
  PAW double counting   =     31777.98446546   -31444.01218007
  entropy T*S    EENTRO =         0.03383370
  eigenvalues    EBANDS =     -1979.15135954
  atomic energy  EATOM  =     38447.69961849
  ---------------------------------------------------
  free energy    TOTEN  =      -616.34875442 eV

  energy without entropy =     -616.38258812  energy(sigma->0) =     -616.36003232


--------------------------------------------------------------------------------------------------------




----------------------------------------- Iteration    1(  15)  ---------------------------------------


    POTLOK:  cpu time    0.05: real time    0.05
    SETDIJ:  cpu time    0.01: real time    0.01
     EDDAV:  cpu time    8.64: real time    8.64
       DOS:  cpu time    0.00: real time    0.00
    CHARGE:  cpu time    0.18: real time    0.18
    MIXING:  cpu time    0.00: real time    0.00
    --------------------------------------------
      LOOP:  cpu time    8.89: real time    8.99

 eigenvalue-minimisations  :  8184
 total energy-change (2. order) :-0.4660275E+00  (-0.4119141E-01)
 number of electron     571.0000220 magnetization     116.7657619
 augmentation part      169.9839084 magnetization      92.1528407

 Broyden mixing:
  rms(total) = 0.10043E+01    rms(broyden)= 0.10043E+01
  rms(prec ) = 0.10112E+01
  weight for this iteration     100.00

 eigenvalues of (default mixing * dielectric matrix)
  average eigenvalue GAMMA=   0.7413
  1.8460  1.8460  0.7456  0.7456  0.5725  0.4561  0.2169  0.3672  0.3085  0.3085

 Free energy of the ion-electron system (eV)
  ---------------------------------------------------
  alpha Z        PSCENC =      2105.86851218
  Ewald energy   TEWEN  =    -28715.89492098
  -1/2 Hartree   DENC   =    -12222.23779892
  -exchange  EXHF       =         0.00000000
  -V(xc)+E(xc)   XCENC  =      1415.30189481
  PAW double counting   =     31809.04099720   -31476.97259307
  entropy T*S    EENTRO =         0.04180152
  eigenvalues    EBANDS =     -1979.66229313
  atomic energy  EATOM  =     38447.69961849
  ---------------------------------------------------
  free energy    TOTEN  =      -616.81478189 eV

  energy without entropy =     -616.85658341  energy(sigma->0) =     -616.82871573


--------------------------------------------------------------------------------------------------------




----------------------------------------- Iteration    1(  16)  ---------------------------------------


    POTLOK:  cpu time    0.05: real time    0.05
    SETDIJ:  cpu time    0.01: real time    0.01
     EDDAV:  cpu time    8.56: real time    8.57
       DOS:  cpu time    0.00: real time    0.00
    CHARGE:  cpu time    0.18: real time    0.18
    MIXING:  cpu time    0.00: real time    0.00
    --------------------------------------------
      LOOP:  cpu time    8.81: real time    8.93

 eigenvalue-minimisations  :  8056
 total energy-change (2. order) :-0.3043898E+00  (-0.1590043E-01)
 number of electron     571.0000221 magnetization     115.9791557
 augmentation part      169.9761523 magnetization      91.3043234

 Broyden mixing:
  rms(total) = 0.97626E+00    rms(broyden)= 0.97626E+00
  rms(prec ) = 0.98821E+00
  weight for this iteration     100.00

 eigenvalues of (default mixing * dielectric matrix)
  average eigenvalue GAMMA=   0.7630
  1.8486  1.8486  1.0001  1.0001  0.5638  0.5638  0.2175  0.3621  0.3375  0.3375
  0.3131

 Free energy of the ion-electron system (eV)
  ---------------------------------------------------
  alpha Z        PSCENC =      2105.86851218
  Ewald energy   TEWEN  =    -28715.89492098
  -1/2 Hartree   DENC   =    -12220.59216273
  -exchange  EXHF       =         0.00000000
  -V(xc)+E(xc)   XCENC  =      1415.23315351
  PAW double counting   =     31821.17208146   -31490.63654748
  entropy T*S    EENTRO =         0.03023992
  eigenvalues    EBANDS =     -1979.99914605
  atomic energy  EATOM  =     38447.69961849
  ---------------------------------------------------
  free energy    TOTEN  =      -617.11917168 eV

  energy without entropy =     -617.14941160  energy(sigma->0) =     -617.12925165


--------------------------------------------------------------------------------------------------------




----------------------------------------- Iteration    1(  17)  ---------------------------------------


    POTLOK:  cpu time    0.05: real time    0.05
    SETDIJ:  cpu time    0.01: real time    0.01
     EDDAV:  cpu time    9.10: real time    9.11
       DOS:  cpu time    0.00: real time    0.00
    CHARGE:  cpu time    0.18: real time    0.18
    MIXING:  cpu time    0.00: real time    0.00
    --------------------------------------------
      LOOP:  cpu time    9.36: real time    9.47

 eigenvalue-minimisations  :  8712
 total energy-change (2. order) :-0.1166114E+01  (-0.2718011E-01)
 number of electron     571.0000220 magnetization     114.6604139
 augmentation part      170.0315239 magnetization      90.2470671

 Broyden mixing:
  rms(total) = 0.97563E+00    rms(broyden)= 0.97561E+00
  rms(prec ) = 0.98247E+00
  weight for this iteration     100.00

 eigenvalues of (default mixing * dielectric matrix)
  average eigenvalue GAMMA=   0.8115
  2.3734  1.5638  1.5638  0.9953  0.6251  0.6251  0.2175  0.4028  0.4028  0.3314
  0.3314  0.3053

 Free energy of the ion-electron system (eV)
  ---------------------------------------------------
  alpha Z        PSCENC =      2105.86851218
  Ewald energy   TEWEN  =    -28715.89492098
  -1/2 Hartree   DENC   =    -12218.51278982
  -exchange  EXHF       =         0.00000000
  -V(xc)+E(xc)   XCENC  =      1415.54054943
  PAW double counting   =     31860.06203047   -31532.43105883
  entropy T*S    EENTRO =         0.04997976
  eigenvalues    EBANDS =     -1980.66720596
  atomic energy  EATOM  =     38447.69961849
  ---------------------------------------------------
  free energy    TOTEN  =      -618.28528525 eV

  energy without entropy =     -618.33526501  energy(sigma->0) =     -618.30194517


--------------------------------------------------------------------------------------------------------




----------------------------------------- Iteration    1(  18)  ---------------------------------------


    POTLOK:  cpu time    0.05: real time    0.05
    SETDIJ:  cpu time    0.01: real time    0.01
     EDDAV:  cpu time    8.94: real time    8.94
       DOS:  cpu time    0.00: real time    0.00
    CHARGE:  cpu time    0.18: real time    0.18
    MIXING:  cpu time    0.00: real time    0.00
    --------------------------------------------
      LOOP:  cpu time    9.19: real time    9.32

 eigenvalue-minimisations  :  8536
 total energy-change (2. order) :-0.2007723E+01  (-0.4459121E-01)
 number of electron     571.0000223 magnetization     113.1430181
 augmentation part      169.8811940 magnetization      88.7721271

 Broyden mixing:
  rms(total) = 0.89295E+00    rms(broyden)= 0.89294E+00
  rms(prec ) = 0.89528E+00
  weight for this iteration     100.00

 eigenvalues of (default mixing * dielectric matrix)
  average eigenvalue GAMMA=   0.8120
  2.4787  1.6765  1.6765  0.9115  0.6733  0.6733  0.4611  0.4611  0.2175  0.3641
  0.3328  0.3328  0.2962

 Free energy of the ion-electron system (eV)
  ---------------------------------------------------
  alpha Z        PSCENC =      2105.86851218
  Ewald energy   TEWEN  =    -28715.89492098
  -1/2 Hartree   DENC   =    -12214.20422087
  -exchange  EXHF       =         0.00000000
  -V(xc)+E(xc)   XCENC  =      1414.35914146
  PAW double counting   =     31863.73902531   -31539.47576385
  entropy T*S    EENTRO =         0.05186218
  eigenvalues    EBANDS =     -1982.43626171
  atomic energy  EATOM  =     38447.69961849
  ---------------------------------------------------
  free energy    TOTEN  =      -620.29300779 eV

  energy without entropy =     -620.34486997  energy(sigma->0) =     -620.31029519


--------------------------------------------------------------------------------------------------------




----------------------------------------- Iteration    1(  19)  ---------------------------------------


    POTLOK:  cpu time    0.05: real time    0.05
    SETDIJ:  cpu time    0.01: real time    0.01
     EDDAV:  cpu time    9.01: real time    9.02
       DOS:  cpu time    0.00: real time    0.00
    CHARGE:  cpu time    0.18: real time    0.18
    MIXING:  cpu time    0.00: real time    0.00
    --------------------------------------------
      LOOP:  cpu time    9.26: real time    9.37

 eigenvalue-minimisations  :  8656
 total energy-change (2. order) :-0.2283031E+01  (-0.4217449E-01)
 number of electron     571.0000222 magnetization     108.5244798
 augmentation part      169.8859610 magnetization      84.2229777

 Broyden mixing:
  rms(total) = 0.85245E+00    rms(broyden)= 0.85244E+00
  rms(prec ) = 0.85466E+00
  weight for this iteration     100.00

 eigenvalues of (default mixing * dielectric matrix)
  average eigenvalue GAMMA=   0.8797
  2.8529  1.8963  1.8963  0.9021  0.9021  0.7201  0.5907  0.5907  0.2175  0.3940
  0.3940  0.3293  0.3293  0.3007

 Free energy of the ion-electron system (eV)
  ---------------------------------------------------
  alpha Z        PSCENC =      2105.86851218
  Ewald energy   TEWEN  =    -28715.89492098
  -1/2 Hartree   DENC   =    -12209.37965291
  -exchange  EXHF       =         0.00000000
  -V(xc)+E(xc)   XCENC  =      1412.38798837
  PAW double counting   =     31863.58589493   -31540.64088818
  entropy T*S    EENTRO =         0.06636583
  eigenvalues    EBANDS =     -1986.26895625
  atomic energy  EATOM  =     38447.69961849
  ---------------------------------------------------
  free energy    TOTEN  =      -622.57603852 eV

  energy without entropy =     -622.64240435  energy(sigma->0) =     -622.59816046


--------------------------------------------------------------------------------------------------------




----------------------------------------- Iteration    1(  20)  ---------------------------------------


    POTLOK:  cpu time    0.05: real time    0.05
    SETDIJ:  cpu time    0.01: real time    0.01
     EDDAV:  cpu time    9.10: real time    9.11
       DOS:  cpu time    0.00: real time    0.00
    CHARGE:  cpu time    0.18: real time    0.18
    MIXING:  cpu time    0.00: real time    0.00
    --------------------------------------------
      LOOP:  cpu time    9.36: real time    9.48

 eigenvalue-minimisations  :  8752
 total energy-change (2. order) :-0.7121898E+01  (-0.3329985E+00)
 number of electron     571.0000220 magnetization     102.0758546
 augmentation part      169.8047121 magnetization      77.9719243

 Broyden mixing:
  rms(total) = 0.73398E+00    rms(broyden)= 0.73394E+00
  rms(prec ) = 0.73706E+00
  weight for this iteration     100.00

 eigenvalues of (default mixing * dielectric matrix)
  average eigenvalue GAMMA=   0.9965
  4.1649  2.1124  2.1124  0.9652  0.9652  0.8761  0.6386  0.6386  0.4624  0.4624
  0.2175  0.3670  0.3314  0.3314  0.3019

 Free energy of the ion-electron system (eV)
  ---------------------------------------------------
  alpha Z        PSCENC =      2105.86851218
  Ewald energy   TEWEN  =    -28715.89492098
  -1/2 Hartree   DENC   =    -12194.58260969
  -exchange  EXHF       =         0.00000000
  -V(xc)+E(xc)   XCENC  =      1405.76298010
  PAW double counting   =     31826.21185780   -31504.27147207
  entropy T*S    EENTRO =         0.06178903
  eigenvalues    EBANDS =     -2000.55369153
  atomic energy  EATOM  =     38447.69961849
  ---------------------------------------------------
  free energy    TOTEN  =      -629.69793668 eV

  energy without entropy =     -629.75972571  energy(sigma->0) =     -629.71853302


--------------------------------------------------------------------------------------------------------




----------------------------------------- Iteration    1(  21)  ---------------------------------------


    POTLOK:  cpu time    0.05: real time    0.05
    SETDIJ:  cpu time    0.01: real time    0.01
     EDDAV:  cpu time    9.23: real time    9.24
       DOS:  cpu time    0.00: real time    0.00
    CHARGE:  cpu time    0.18: real time    0.18
    MIXING:  cpu time    0.00: real time    0.00
    --------------------------------------------
      LOOP:  cpu time    9.49: real time    9.75

 eigenvalue-minimisations  :  8872
 total energy-change (2. order) :-0.7956123E+01  (-0.7773659E+00)
 number of electron     571.0000229 magnetization      97.3586765
 augmentation part      169.5166886 magnetization      73.5631937

 Broyden mixing:
  rms(total) = 0.55087E+00    rms(broyden)= 0.55075E+00
  rms(prec ) = 0.58399E+00
  weight for this iteration     100.00

 eigenvalues of (default mixing * dielectric matrix)
  average eigenvalue GAMMA=   1.1940
  7.2460  2.1420  2.1420  1.1673  0.9888  0.8768  0.8768  0.6177  0.6177  0.2175
  0.4352  0.4352  0.3785  0.3310  0.3310  0.3012

 Free energy of the ion-electron system (eV)
  ---------------------------------------------------
  alpha Z        PSCENC =      2105.86851218
  Ewald energy   TEWEN  =    -28715.89492098
  -1/2 Hartree   DENC   =    -12176.35817498
  -exchange  EXHF       =         0.00000000
  -V(xc)+E(xc)   XCENC  =      1398.49034105
  PAW double counting   =     31721.85578347   -31397.87507716
  entropy T*S    EENTRO =         0.08115609
  eigenvalues    EBANDS =     -2021.52129796
  atomic energy  EATOM  =     38447.69961849
  ---------------------------------------------------
  free energy    TOTEN  =      -637.65405979 eV

  energy without entropy =     -637.73521589  energy(sigma->0) =     -637.68111183


--------------------------------------------------------------------------------------------------------




----------------------------------------- Iteration    1(  22)  ---------------------------------------


    POTLOK:  cpu time    0.05: real time    0.05
    SETDIJ:  cpu time    0.01: real time    0.01
     EDDAV:  cpu time    9.00: real time    9.00
       DOS:  cpu time    0.00: real time    0.00
    CHARGE:  cpu time    0.18: real time    0.18
    MIXING:  cpu time    0.00: real time    0.00
    --------------------------------------------
      LOOP:  cpu time    9.25: real time    9.34

 eigenvalue-minimisations  :  8600
 total energy-change (2. order) :-0.2571868E+01  (-0.3323750E+00)
 number of electron     571.0000231 magnetization      94.8250731
 augmentation part      169.1050043 magnetization      70.9992903

 Broyden mixing:
  rms(total) = 0.37464E+00    rms(broyden)= 0.37438E+00
  rms(prec ) = 0.39389E+00
  weight for this iteration     100.00

 eigenvalues of (default mixing * dielectric matrix)
  average eigenvalue GAMMA=   1.3996
 10.9831  2.2255  2.2255  1.2119  1.2119  0.8415  0.8415  0.6325  0.6325  0.5050
  0.5050  0.2175  0.4160  0.3812  0.3308  0.3308  0.3011

 Free energy of the ion-electron system (eV)
  ---------------------------------------------------
  alpha Z        PSCENC =      2105.86851218
  Ewald energy   TEWEN  =    -28715.89492098
  -1/2 Hartree   DENC   =    -12166.04442624
  -exchange  EXHF       =         0.00000000
  -V(xc)+E(xc)   XCENC  =      1393.59353626
  PAW double counting   =     31599.87236765   -31272.36331114
  entropy T*S    EENTRO =         0.05943886
  eigenvalues    EBANDS =     -2033.01674317
  atomic energy  EATOM  =     38447.69961849
  ---------------------------------------------------
  free energy    TOTEN  =      -640.22592808 eV

  energy without entropy =     -640.28536694  energy(sigma->0) =     -640.24574103


--------------------------------------------------------------------------------------------------------




----------------------------------------- Iteration    1(  23)  ---------------------------------------


    POTLOK:  cpu time    0.05: real time    0.05
    SETDIJ:  cpu time    0.01: real time    0.01
     EDDAV:  cpu time    9.46: real time    9.46
       DOS:  cpu time    0.00: real time    0.00
    CHARGE:  cpu time    0.18: real time    0.18
    MIXING:  cpu time    0.00: real time    0.00
    --------------------------------------------
      LOOP:  cpu time    9.71: real time    9.80

 eigenvalue-minimisations  :  9144
 total energy-change (2. order) :-0.2021153E+00  (-0.6392673E-01)
 number of electron     571.0000231 magnetization      92.4478647
 augmentation part      169.1380069 magnetization      68.7390561

 Broyden mixing:
  rms(total) = 0.22599E+00    rms(broyden)= 0.22588E+00
  rms(prec ) = 0.22804E+00
  weight for this iteration     100.00

 eigenvalues of (default mixing * dielectric matrix)
  average eigenvalue GAMMA=   2.0393
 22.6302  2.2640  2.2640  1.3978  1.3978  0.8996  0.8996  0.6324  0.6324  0.6459
  0.5814  0.2175  0.4822  0.4205  0.3797  0.3308  0.3308  0.3012

 Free energy of the ion-electron system (eV)
  ---------------------------------------------------
  alpha Z        PSCENC =      2105.86851218
  Ewald energy   TEWEN  =    -28715.89492098
  -1/2 Hartree   DENC   =    -12163.83569285
  -exchange  EXHF       =         0.00000000
  -V(xc)+E(xc)   XCENC  =      1392.22061899
  PAW double counting   =     31583.54954509   -31254.46110816
  entropy T*S    EENTRO =         0.05576631
  eigenvalues    EBANDS =     -2035.63038243
  atomic energy  EATOM  =     38447.69961849
  ---------------------------------------------------
  free energy    TOTEN  =      -640.42804336 eV

  energy without entropy =     -640.48380967  energy(sigma->0) =     -640.44663213


--------------------------------------------------------------------------------------------------------




----------------------------------------- Iteration    1(  24)  ---------------------------------------


    POTLOK:  cpu time    0.05: real time    0.05
    SETDIJ:  cpu time    0.01: real time    0.01
     EDDAV:  cpu time    9.78: real time    9.78
       DOS:  cpu time    0.00: real time    0.00
    CHARGE:  cpu time    0.18: real time    0.18
    MIXING:  cpu time    0.00: real time    0.00
    --------------------------------------------
      LOOP:  cpu time   10.03: real time   10.13

 eigenvalue-minimisations  :  9600
 total energy-change (2. order) :-0.1013534E+00  (-0.2131888E-01)
 number of electron     571.0000229 magnetization      91.5512290
 augmentation part      169.0890231 magnetization      67.9465394

 Broyden mixing:
  rms(total) = 0.16356E+00    rms(broyden)= 0.16348E+00
  rms(prec ) = 0.16441E+00
  weight for this iteration     100.00

 eigenvalues of (default mixing * dielectric matrix)
  average eigenvalue GAMMA=   3.2340
 46.2999  2.3278  2.3278  1.5109  1.5109  0.8317  0.8317  0.7771  0.7771  0.6474
  0.6474  0.2175  0.3012  0.3309  0.3309  0.5126  0.3796  0.4616  0.4225

 Free energy of the ion-electron system (eV)
  ---------------------------------------------------
  alpha Z        PSCENC =      2105.86851218
  Ewald energy   TEWEN  =    -28715.89492098
  -1/2 Hartree   DENC   =    -12163.28137601
  -exchange  EXHF       =         0.00000000
  -V(xc)+E(xc)   XCENC  =      1391.89408419
  PAW double counting   =     31579.62776794   -31251.14037396
  entropy T*S    EENTRO =         0.06495309
  eigenvalues    EBANDS =     -2035.36766174
  atomic energy  EATOM  =     38447.69961849
  ---------------------------------------------------
  free energy    TOTEN  =      -640.52939680 eV

  energy without entropy =     -640.59434989  energy(sigma->0) =     -640.55104783


--------------------------------------------------------------------------------------------------------




----------------------------------------- Iteration    1(  25)  ---------------------------------------


    POTLOK:  cpu time    0.05: real time    0.05
    SETDIJ:  cpu time    0.01: real time    0.01
     EDDAV:  cpu time    9.21: real time    9.21
       DOS:  cpu time    0.00: real time    0.00
    CHARGE:  cpu time    0.18: real time    0.18
    MIXING:  cpu time    0.00: real time    0.00
    --------------------------------------------
      LOOP:  cpu time    9.46: real time    9.57

 eigenvalue-minimisations  :  8872
 total energy-change (2. order) :-0.4323470E-01  (-0.9865159E-02)
 number of electron     571.0000230 magnetization      91.2597164
 augmentation part      169.0580020 magnetization      67.6720977

 Broyden mixing:
  rms(total) = 0.98194E-01    rms(broyden)= 0.98152E-01
  rms(prec ) = 0.98799E-01
  weight for this iteration     100.00

 eigenvalues of (default mixing * dielectric matrix)
  average eigenvalue GAMMA=   3.8567
 60.8173  2.3812  2.3812  1.5931  1.5931  0.9633  0.9633  0.8170  0.8170  0.6330
  0.6330  0.2175  0.5554  0.5554  0.3012  0.3309  0.3309  0.3788  0.4353  0.4353

 Free energy of the ion-electron system (eV)
  ---------------------------------------------------
  alpha Z        PSCENC =      2105.86851218
  Ewald energy   TEWEN  =    -28715.89492098
  -1/2 Hartree   DENC   =    -12166.18533804
  -exchange  EXHF       =         0.00000000
  -V(xc)+E(xc)   XCENC  =      1391.62445629
  PAW double counting   =     31570.40369281   -31240.80407427
  entropy T*S    EENTRO =         0.06350525
  eigenvalues    EBANDS =     -2033.34808323
  atomic energy  EATOM  =     38447.69961849
  ---------------------------------------------------
  free energy    TOTEN  =      -640.57263150 eV

  energy without entropy =     -640.63613675  energy(sigma->0) =     -640.59379991


--------------------------------------------------------------------------------------------------------




----------------------------------------- Iteration    1(  26)  ---------------------------------------


    POTLOK:  cpu time    0.05: real time    0.05
    SETDIJ:  cpu time    0.01: real time    0.01
     EDDAV:  cpu time    9.03: real time    9.04
       DOS:  cpu time    0.00: real time    0.00
    CHARGE:  cpu time    0.18: real time    0.18
    MIXING:  cpu time    0.00: real time    0.00
    --------------------------------------------
      LOOP:  cpu time    9.29: real time    9.39

 eigenvalue-minimisations  :  8664
 total energy-change (2. order) :-0.1555149E-01  (-0.3394258E-02)
 number of electron     571.0000229 magnetization      91.1660551
 augmentation part      169.0513723 magnetization      67.5816270

 Broyden mixing:
  rms(total) = 0.77358E-01    rms(broyden)= 0.77334E-01
  rms(prec ) = 0.77873E-01
  weight for this iteration     100.00

 eigenvalues of (default mixing * dielectric matrix)
  average eigenvalue GAMMA=   4.1191
 68.9041  2.5691  2.5691  1.6501  1.6501  1.0254  1.0254  0.8000  0.8000  0.7474
  0.6420  0.6420  0.2175  0.3012  0.3309  0.3309  0.5228  0.5228  0.3788  0.4354
  0.4354

 Free energy of the ion-electron system (eV)
  ---------------------------------------------------
  alpha Z        PSCENC =      2105.86851218
  Ewald energy   TEWEN  =    -28715.89492098
  -1/2 Hartree   DENC   =    -12168.61870099
  -exchange  EXHF       =         0.00000000
  -V(xc)+E(xc)   XCENC  =      1391.43468405
  PAW double counting   =     31567.93192999   -31237.81613878
  entropy T*S    EENTRO =         0.05826590
  eigenvalues    EBANDS =     -2031.25143286
  atomic energy  EATOM  =     38447.69961849
  ---------------------------------------------------
  free energy    TOTEN  =      -640.58818299 eV

  energy without entropy =     -640.64644889  energy(sigma->0) =     -640.60760496


--------------------------------------------------------------------------------------------------------




[...]
   -.153E+02 0.330E-01 0.134E+03   0.154E+02 -.324E-01 -.135E+03   -.780E-01 -.166E-03 0.962E+00   0.396E-02 -.159E-03 0.102E+00
   -.130E+02 0.446E-01 0.225E+03   0.131E+02 -.440E-01 -.227E+03   -.130E+00 -.387E-03 0.945E+00   -.495E-02 -.105E-03 0.330E+00
   -.182E+02 0.493E-01 0.253E+03   0.185E+02 -.536E-01 -.254E+03   -.282E+00 -.752E-03 0.945E+00   -.553E-02 0.177E-02 0.153E+00
   0.493E+01 -.423E+00 0.293E+03   -.481E+01 0.363E+00 -.292E+03   -.120E+00 0.727E-01 -.399E+00   0.278E-02 -.434E-02 0.447E-01
   -.226E+01 0.899E-01 0.221E+03   0.225E+01 -.892E-01 -.221E+03   0.841E-02 -.490E-02 -.211E+00   0.134E-02 0.151E-02 -.183E-01
   -.191E+01 -.178E-02 0.205E+02   0.188E+01 -.205E-02 -.204E+02   0.315E-01 -.262E-02 -.408E-01   -.180E-02 0.227E-02 -.500E-01
   -.134E+01 0.175E-01 -.167E+03   0.133E+01 -.192E-01 0.167E+03   0.161E-01 -.421E-03 0.126E-01   -.114E-02 0.687E-03 -.805E-01
   -.192E+01 0.360E-01 -.329E+03   0.194E+01 -.368E-01 0.329E+03   -.915E-02 -.124E-04 -.129E-01   0.568E-02 0.270E-03 -.117E+00
   0.184E+01 0.481E+00 0.286E+03   -.205E+01 -.422E+00 -.284E+03   0.202E+00 -.546E-01 -.167E+01   -.197E-03 -.138E-02 0.674E-02
   0.145E+01 0.675E-01 0.122E+03   -.141E+01 -.700E-01 -.122E+03   -.308E-01 -.450E-02 -.243E-02   -.621E-03 0.252E-02 -.365E-01
   0.134E+01 0.717E-02 -.770E+02   -.132E+01 -.999E-02 0.771E+02   -.173E-01 -.138E-02 -.862E-02   0.320E-04 0.142E-02 -.651E-01
   0.157E+01 0.195E-01 -.251E+03   -.159E+01 -.208E-01 0.251E+03   0.666E-02 -.144E-03 0.154E-01   -.443E-03 0.449E-03 -.967E-01
   0.642E+01 0.231E-01 -.401E+03   -.639E+01 -.243E-01 0.402E+03   -.613E-01 0.125E-02 -.610E-01   -.848E-02 -.279E-04 -.138E+00
   0.125E+02 0.745E-01 0.240E+03   -.108E+02 -.969E-01 -.252E+03   -.167E+01 0.201E-01 0.114E+02   0.280E-02 -.110E-02 0.144E+00
   0.219E+02 -.999E-01 0.200E+03   -.228E+02 0.149E+00 -.209E+03   0.899E+00 -.494E-01 0.883E+01   0.623E-02 0.102E-03 0.280E+00
   -.712E+01 -.136E+00 -.404E+03   0.636E+01 0.192E+00 0.414E+03   0.732E+00 -.563E-01 -.943E+01   -.651E-02 -.125E-03 -.145E+00
   0.234E+02 -.607E-01 0.116E+03   -.249E+02 0.900E-01 -.125E+03   0.159E+01 -.291E-01 0.841E+01   0.195E-02 0.115E-03 0.635E-01
   -.391E+02 -.831E-01 -.203E+03   0.447E+02 0.121E+00 0.206E+03   -.565E+01 -.370E-01 -.265E+01   -.834E-02 0.269E-03 -.214E+00
   0.367E+02 0.194E-02 -.345E+02   -.425E+02 -.104E-01 0.310E+02   0.576E+01 0.906E-02 0.372E+01   0.356E-02 0.318E-03 -.184E+00
   -.310E+02 0.850E-02 -.345E+02   0.337E+02 -.185E-01 0.407E+02   -.265E+01 0.104E-01 -.605E+01   0.206E-03 0.208E-03 -.106E+00
   0.417E+02 0.776E-01 -.237E+03   -.484E+02 -.125E+00 0.235E+03   0.674E+01 0.477E-01 0.261E+01   -.164E-02 0.220E-03 -.213E+00
   -.216E+02 0.597E-01 0.672E+02   0.217E+02 -.928E-01 -.583E+02   -.116E+00 0.334E-01 -.902E+01   -.108E-02 0.117E-03 0.217E+00
   -.209E+02 0.855E-01 0.131E+03   0.209E+02 -.126E+00 -.122E+03   -.118E-01 0.394E-01 -.914E+01   -.824E-02 -.327E-03 0.240E+00
   -.511E+02 -.155E+00 0.196E+03   0.602E+02 0.127E+00 -.191E+03   -.913E+01 0.302E-01 -.515E+01   -.134E-02 -.587E-03 0.612E-01
   0.157E+02 0.330E+00 0.293E+03   -.228E+02 -.596E+00 -.305E+03   0.715E+01 0.269E+00 0.128E+02   -.142E-02 0.218E-02 0.590E-01
   -.185E+02 -.491E-01 0.229E+03   0.187E+02 0.883E-01 -.239E+03   -.267E+00 -.407E-01 0.932E+01   -.862E-02 -.749E-03 0.232E+00
   -.203E+02 -.614E-01 0.165E+03   0.209E+02 0.937E-01 -.175E+03   -.594E+00 -.320E-01 0.930E+01   -.306E-02 0.120E-03 0.222E+00
   0.376E+02 -.142E+00 -.310E+03   -.428E+02 0.206E+00 0.314E+03   0.530E+01 -.642E-01 -.319E+01   0.910E-02 0.402E-04 -.207E+00
   -.282E+02 -.220E-01 0.513E+02   0.315E+02 0.294E-01 -.577E+02   -.330E+01 -.699E-02 0.653E+01   -.373E-02 0.156E-03 -.968E-01
   0.371E+02 -.541E-01 -.110E+03   -.419E+02 0.744E-01 0.114E+03   0.475E+01 -.197E-01 -.360E+01   0.452E-02 0.353E-03 -.186E+00
   -.410E+02 0.620E-01 -.133E+03   0.479E+02 -.100E+00 0.131E+03   -.690E+01 0.390E-01 0.235E+01   0.114E-02 0.302E-03 -.216E+00
   0.242E+02 0.232E-01 0.219E+02   -.251E+02 -.412E-01 -.138E+02   0.892E+00 0.181E-01 -.805E+01   0.446E-03 0.109E-03 0.516E-01
   -.436E+02 0.112E+00 -.334E+03   0.488E+02 -.174E+00 0.330E+03   -.516E+01 0.619E-01 0.390E+01   0.120E-02 0.297E-04 -.154E+00
   0.197E+02 0.609E-01 0.102E+03   -.198E+02 -.979E-01 -.937E+02   0.111E+00 0.371E-01 -.900E+01   0.422E-02 0.135E-03 0.284E+00
   0.144E+02 -.333E-01 0.133E+03   -.126E+02 0.694E-01 -.122E+03   -.181E+01 -.386E-01 -.110E+02   0.415E-02 -.111E-02 0.148E+00
   -.182E+03 -.956E-01 0.147E+03   0.216E+03 0.153E+00 -.140E+03   -.341E+02 -.594E-01 -.746E+01   -.225E-02 -.901E-03 0.106E+00
   -.183E+03 0.687E-01 0.135E+03   0.217E+03 -.970E-01 -.129E+03   -.343E+02 0.281E-01 -.571E+01   -.171E-02 0.184E-05 0.271E+00
   -.183E+03 0.415E-01 0.611E+02   0.217E+03 -.603E-01 -.555E+02   -.340E+02 0.190E-01 -.570E+01   -.332E-03 0.103E-03 0.132E+00
   0.189E+03 0.436E-01 -.193E+03   -.223E+03 -.732E-01 0.189E+03   0.339E+02 0.301E-01 0.417E+01   0.311E-02 0.153E-03 -.213E+00
   -.188E+03 -.201E-01 -.599E+02   0.222E+03 0.217E-01 0.645E+02   -.340E+02 -.102E-02 -.443E+01   0.988E-03 0.254E-03 -.155E+00
   0.186E+03 -.156E-01 -.905E+00   -.220E+03 0.152E-01 -.382E+01   0.341E+02 0.955E-03 0.488E+01   -.107E-02 0.237E-03 -.147E+00
   -.188E+03 -.960E-01 -.249E+03   0.222E+03 0.131E+00 0.253E+03   -.340E+02 -.342E-01 -.377E+01   -.415E-03 0.148E-03 -.212E+00
   0.183E+03 -.626E-01 0.127E+03   -.217E+03 0.846E-01 -.133E+03   0.340E+02 -.218E-01 0.606E+01   0.265E-02 0.908E-04 0.150E+00
   0.182E+03 -.858E-01 0.200E+03   -.216E+03 0.120E+00 -.206E+03   0.343E+02 -.350E-01 0.588E+01   0.333E-04 -.184E-03 0.259E+00
   0.183E+03 0.248E+00 0.222E+03   -.216E+03 -.298E+00 -.230E+03   0.337E+02 0.488E-01 0.744E+01   0.378E-02 -.533E-03 0.968E-01
   0.180E+03 0.390E-01 0.153E+03   -.214E+03 -.411E-01 -.147E+03   0.342E+02 0.231E-05 -.650E+01   0.988E-03 -.733E-03 0.199E+00
   0.182E+03 0.411E-01 0.102E+03   -.216E+03 -.591E-01 -.957E+02   0.341E+02 0.182E-01 -.619E+01   -.111E-03 0.100E-03 0.259E+00
   -.188E+03 0.803E-01 -.298E+03   0.221E+03 -.122E+00 0.293E+03   -.334E+02 0.424E-01 0.494E+01   -.200E-02 0.118E-03 -.179E+00
   0.186E+03 0.123E-01 0.891E+01   -.219E+03 -.215E-01 -.346E+01   0.339E+02 0.956E-02 -.538E+01   0.123E-02 0.177E-03 -.377E-01
   -.188E+03 0.215E-01 -.919E+02   0.222E+03 -.389E-01 0.878E+02   -.340E+02 0.181E-01 0.428E+01   0.708E-03 0.274E-03 -.201E+00
   0.189E+03 -.698E-01 -.147E+03   -.223E+03 0.898E-01 0.151E+03   0.340E+02 -.194E-01 -.384E+01   0.107E-03 0.226E-03 -.202E+00
   -.184E+03 -.355E-01 0.718E+02   0.218E+03 0.461E-01 -.776E+02   -.340E+02 -.102E-01 0.582E+01   -.177E-02 0.146E-03 -.189E-01
   0.186E+03 -.132E+00 -.357E+03   -.220E+03 0.181E+00 0.362E+03   0.338E+02 -.492E-01 -.413E+01   0.205E-02 0.641E-04 -.170E+00
   -.182E+03 -.667E-01 0.168E+03   0.216E+03 0.886E-01 -.174E+03   -.340E+02 -.217E-01 0.645E+01   -.126E-02 0.116E-03 0.261E+00
   -.179E+03 0.582E-02 0.219E+03   0.214E+03 0.902E-02 -.226E+03   -.343E+02 -.172E-01 0.663E+01   -.307E-02 -.896E-03 0.185E+00
   -.183E+02 0.386E+00 0.199E+03   0.198E+02 -.718E+00 -.190E+03   -.142E+01 0.332E+00 -.911E+01   0.121E-02 0.658E-03 0.294E-02
   -.135E+02 0.151E+00 0.295E+02   0.106E+02 -.178E+00 -.177E+02   0.292E+01 0.247E-01 -.118E+02   0.341E-02 -.134E-02 -.211E-01
   -.142E+02 -.291E-01 -.137E+03   0.114E+02 0.548E-01 0.148E+03   0.277E+01 -.275E-01 -.114E+02   0.298E-02 -.738E-03 -.432E-01
   -.144E+02 -.109E+00 -.281E+03   0.114E+02 0.158E+00 0.292E+03   0.297E+01 -.492E-01 -.110E+02   0.509E-03 -.176E-03 -.781E-01
   0.103E+02 0.326E-01 0.198E+03   -.884E+01 0.138E-01 -.182E+03   -.144E+01 -.420E-01 -.158E+02   0.351E-03 0.269E-02 0.247E-01
   0.133E+02 0.264E+00 0.119E+03   -.114E+02 -.385E+00 -.108E+03   -.192E+01 0.119E+00 -.110E+02   -.192E-02 -.859E-03 -.118E-01
   0.140E+02 0.440E-01 -.566E+02   -.114E+02 -.385E-01 0.682E+02   -.265E+01 -.828E-02 -.115E+02   -.174E-02 -.117E-02 -.315E-01
   0.150E+02 -.935E-01 -.211E+03   -.122E+02 0.140E+00 0.223E+03   -.275E+01 -.473E-01 -.112E+02   -.110E-02 -.386E-03 -.590E-01
   0.150E+02 -.129E+00 -.345E+03   -.121E+02 0.187E+00 0.357E+03   -.294E+01 -.577E-01 -.113E+02   0.238E-02 -.134E-03 -.107E+00
   -.967E+01 -.316E+00 0.266E+03   0.476E+01 0.572E+00 -.278E+03   0.491E+01 -.257E+00 0.120E+02   -.887E-03 -.599E-03 0.227E-02
   -.133E+02 -.568E-01 0.921E+02   0.925E+01 0.102E+00 -.104E+03   0.410E+01 -.486E-01 0.121E+02   -.213E-02 -.123E-02 -.227E-01
   -.155E+02 0.644E-01 -.746E+02   0.128E+02 -.843E-01 0.633E+02   0.270E+01 0.186E-01 0.114E+02   -.268E-02 -.442E-03 -.470E-01
   -.174E+02 0.956E-01 -.218E+03   0.159E+02 -.138E+00 0.207E+03   0.154E+01 0.418E-01 0.107E+02   -.348E-02 -.600E-04 -.829E-01
   0.191E+02 -.494E+00 0.272E+03   -.226E+02 0.488E+00 -.276E+03   0.345E+01 0.110E-01 0.329E+01   -.220E-02 0.603E-03 0.219E-01
   0.120E+02 -.205E+00 0.182E+03   -.758E+01 0.341E+00 -.194E+03   -.441E+01 -.138E+00 0.120E+02   0.186E-02 -.127E-02 -.127E-01
   0.145E+02 0.395E-02 0.555E+01   -.112E+02 0.997E-02 -.170E+02   -.331E+01 -.161E-01 0.115E+02   0.362E-02 -.848E-03 -.335E-01
   0.166E+02 0.813E-01 -.149E+03   -.145E+02 -.112E+00 0.138E+03   -.207E+01 0.299E-01 0.110E+02   0.370E-02 -.185E-03 -.632E-01
   0.206E+02 0.851E-01 -.284E+03   -.199E+02 -.125E+00 0.274E+03   -.721E+00 0.395E-01 0.104E+02   0.187E-02 0.250E-04 -.112E+00
   -.598E+00 -.827E+00 0.413E+02   0.697E+00 0.700E+00 -.410E+02   -.105E+00 0.154E+00 -.275E+00   -.651E-04 0.305E-05 0.678E-02
 -----------------------------------------------------------------------------------------------
   0.184E+01 -.245E+00 0.418E+01   -.477E-12 0.247E-12 0.153E-11   -.185E+01 0.239E+00 -.418E+01   0.472E-02 -.310E-04 -.989E-02
 
 
 POSITION                                       TOTAL-FORCE (eV/Angst)
 -----------------------------------------------------------------------------------
      0.34695      0.75748     41.50843         0.004543     -0.003874     -0.015348
      0.28228      0.74896     32.28479         0.002963      0.000230     -0.039885
      4.48601      2.22389      1.58182         0.022229      0.000221      0.087790
      0.24990      0.74181     22.99800        -0.014738      0.000605     -0.076091
      4.52549      2.21166     11.06087         0.004506      0.001068      0.019405
      0.16637      0.74130     13.61497         0.002737      0.001034     -0.002089
      4.46469      2.20991     20.47646        -0.021752      0.000656     -0.073228
      0.15588      0.75143      4.14784         0.025400      0.000206      0.094612
      4.43006      2.21617     29.78494        -0.015756      0.000563     -0.049235
      4.46361      2.22581     39.02801        -0.017582     -0.002566     -0.018714
      2.07593      0.75186     46.06323         0.000580     -0.001376     -0.006441
      2.14364      0.75429     36.91340        -0.013744     -0.000961     -0.024077
      2.11142      0.74506     27.65449         0.010907      0.000297     -0.063407
      2.47866      2.21669      6.32367        -0.012741      0.000507      0.076098
      2.14479      0.74035     18.32394         0.012007      0.000891     -0.056242
      2.48501      2.20935     15.77889         0.011466      0.000948     -0.040063
      2.21143      0.74520      8.88988        -0.014447      0.000763      0.057215
      2.56971      2.21235     25.13836         0.024476      0.000410     -0.072437
      2.60663      2.22073     34.40958         0.013948      0.000222     -0.029543
      2.66079      2.22461     43.60311         0.009248     -0.003228     -0.012340
      4.51121      2.20239     48.44832        -0.002925      0.007766      0.001011
      4.54519      2.22683     53.00776         0.000241     -0.002617      0.014916
      4.53372      2.23728     57.30340         0.001588     -0.004107      0.020964
      4.52361      2.23618     61.63319         0.003737     -0.001369      0.023282
      4.51523      2.23004     65.99534         0.016523     -0.000508      0.029804
      2.22754      0.74565     50.87483        -0.002809      0.002697      0.009442
      2.21709      0.76514     55.15060         0.000826     -0.004399      0.019112
      2.20922      0.76881     59.46102         0.002590     -0.002699      0.022276
      2.20568      0.76446     63.80873        -0.005585     -0.000883      0.024296
      2.19880      0.75750     68.18003        -0.033880      0.000142      0.073815
      1.89032      0.75617     42.65575         0.014485     -0.003342     -0.011849
      1.78326      0.75119     33.50106         0.030168      0.000242     -0.010234
      2.99984      2.22697      0.34214        -0.040719     -0.000192     -0.037673
      1.73637      0.74309     24.23766         0.034556      0.000370      0.034241
      3.14222      2.21346      9.70890        -0.029852      0.000826     -0.031644
      1.57093      0.74055     14.95581         0.013903      0.000992     -0.004340
      3.01432      2.20922     19.19750         0.021742      0.000698      0.037880
      1.54623      0.74839      5.51598        -0.026067      0.000716     -0.068752
      2.92659      2.21424     28.57430         0.011782      0.000382      0.025704
      2.95763      2.22362     37.83079        -0.026792     -0.001133      0.005864
      2.88327      2.21563     47.09756        -0.006122      0.000780      0.004393
      0.63267      0.73826     47.39822        -0.005624      0.004851      0.003885
      0.63604      0.75626     38.10993        -0.033005     -0.002157     -0.022736
      0.60665      0.74659     28.86562        -0.028856      0.000432      0.016271
      3.87014      2.21961      4.98002         0.053690      0.000191     -0.057363
      0.69274      0.74062     19.60446        -0.030313      0.000580      0.027434
      3.89149      2.21007     14.45232         0.001937      0.001010      0.008285
      0.82449      0.74294     10.25631         0.010915      0.001032     -0.043000
      4.05606      2.21107     23.90654        -0.023593      0.000355      0.040703
      0.74189      0.75554      0.73710         0.018478      0.000062     -0.055337
      4.10643      2.21844     33.20466         0.010740      0.000363      0.012490
      4.20643      2.22627     42.46114         0.012554     -0.003492      0.000865
      3.39001      0.75493     44.65671        -0.000490     -0.003083      0.000847
      3.38299      0.75218     35.43222        -0.007903     -0.000096      0.000655
      3.34653      0.74368     26.16261        -0.010207      0.000336      0.021843
      1.36389      2.21443      7.93265         0.001739      0.000704     -0.044752
      3.30884      0.74031     16.76729         0.002787      0.000883      0.017515
      1.32706      2.20916     17.34114        -0.005520      0.000839      0.009071
      3.32375      0.74710      7.29442         0.007518      0.000636     -0.031889
      1.33726      2.21352     26.63384        -0.001202      0.000415      0.019377
      1.36893      2.22257     35.89467        -0.002413     -0.000640     -0.015299
      1.34862      2.22202     45.02782         0.005789     -0.001998     -0.004027
      3.70785      0.75715     40.06496        -0.000751     -0.002740     -0.001105
      3.66660      0.74759     30.81643         0.011463      0.000313      0.007726
      0.98915      2.22077      3.17579        -0.002276      0.000499     -0.049258
      3.67283      0.74121     21.48946         0.006758      0.000614      0.029010
      1.00824      2.21022     12.65383         0.004710      0.001066     -0.021044
      3.68153      0.74243     12.03201        -0.005667      0.000818     -0.008562
      1.03649      2.21034     21.98878         0.005887      0.000606      0.024518
      3.66413      0.75421      2.57611        -0.007005      0.000343     -0.036033
      1.04626      2.21726     31.25762         0.001215      0.000478      0.000527
      1.09692      2.22610     40.47421        -0.005281     -0.003159     -0.015487
      3.03271      2.21779     51.76690        -0.000532      0.001185      0.007204
      2.98452      2.23460     56.11868         0.003086     -0.004348      0.019206
      2.98524      2.23736     60.43044         0.001105     -0.002451      0.026628
      2.98648      2.23258     64.78223        -0.005290     -0.000539      0.011664
      3.72532      0.73482     49.42706        -0.003388      0.007113      0.000944
      3.75987      0.75954     53.95972        -0.001225     -0.003038      0.013342
      3.75518      0.76856     58.26828         0.002726     -0.003878      0.025114
      3.74189      0.76674     62.60247         0.004758     -0.001295      0.022408
      3.73323      0.76035     66.96732         0.013706     -0.000246     -0.006880
      0.66297      0.75500     51.99577         0.001389     -0.001337      0.012018
      0.66177      0.76768     56.31556         0.003292     -0.004158      0.023054
      0.66633      0.76738     60.65924        -0.000688     -0.001588      0.022753
      0.67200      0.76146     65.03377        -0.001069     -0.000346      0.004672
      1.47233      2.20563     49.71148        -0.004235      0.005393      0.004831
      1.46033      2.23237     54.15834        -0.001265     -0.003948      0.018115
      1.43561      2.23760     58.48611         0.003403     -0.003001      0.024190
      1.41958      2.23376     62.84430         0.002879     -0.000762      0.014575
      1.39687      2.22686     67.23801        -0.010061     -0.000110     -0.021632
      2.16693      0.69267     48.46252        -0.006304      0.026319      0.004177
 -----------------------------------------------------------------------------------
    total drift:                               -0.005366     -0.006572     -0.001245


--------------------------------------------------------------------------------------------------------



  FREE ENERGIE OF THE ION-ELECTRON SYSTEM (eV)
  ---------------------------------------------------
  free  energy   TOTEN  =      -640.61301830 eV

  energy  without entropy=     -640.67410052  energy(sigma->0) =     -640.63337904
 
 d Force = 0.1505353E-02[ 0.127E-02, 0.174E-02]  d Energy = 0.1366237E-02 0.139E-03
 d Force =-0.6731708E+00[-0.681E+00,-0.665E+00]  d Ewald  = 0.4739078E+00-0.115E+01


--------------------------------------------------------------------------------------------------------


    POTLOK:  cpu time    0.07: real time    0.07


--------------------------------------------------------------------------------------------------------




--------------------------------------------------------------------------------------------------------


  
 reached required accuracy - stopping structural energy minimisation
     LOOP+:  cpu time   39.51: real time   40.32
    4ORBIT:  cpu time    0.00: real time    0.00

 total amount of memory used by VASP on root node    51492. kBytes
========================================================================

   base      :      30000. kBytes
   nonl-proj :       5451. kBytes
   fftplans  :       1033. kBytes
   grid      :       2790. kBytes
   one-center:        311. kBytes
   wavefun   :      11907. kBytes
 
  
  
 General timing and accounting informations for this job:
 ========================================================
  
                  Total CPU time used (sec):      639.119
                            User time (sec):      637.653
                          System time (sec):        1.466
                         Elapsed time (sec):      650.681
  
                   Maximum memory used (kb):      122976.
                   Average memory used (kb):           0.
  
                          Minor page faults:        17736
                          Major page faults:            0
                 Voluntary context switches:        24027
