 vasp.5.3.3 18Dez12 (build May 12 2016 12:04:25) complex                        
  
 executed on             LinuxIFC date 2019.05.05  16:48:05
 running on   64 total cores
 distrk:  each k-point on   64 cores,    1 groups
 distr:  one band on NCORES_PER_BAND=   8 cores,    8 groups


--------------------------------------------------------------------------------------------------------


 INCAR:
 POTCAR:   PAW_PBE O_s 07Sep2000                  
 POTCAR:   PAW_PBE Mn 06Sep2000                   
 POTCAR:   PAW_PBE O_s 07Sep2000                  
  local pseudopotential read in
  atomic valenz-charges read in
  non local Contribution for L=           0  read in
    real space projection operators read in
  non local Contribution for L=           0  read in
    real space projection operators read in
  non local Contribution for L=           1  read in
    real space projection operators read in
  non local Contribution for L=           1  read in
    real space projection operators read in
    PAW grid and wavefunctions read in
 
   number of l-projection  operators is LMAX  =           4
   number of lm-projection operators is LMMAX =           8
 
 POTCAR:   PAW_PBE Mn 06Sep2000                   
  local pseudopotential read in
  partial core-charges read in
  atomic valenz-charges read in
  non local Contribution for L=           2  read in
    real space projection operators read in
  non local Contribution for L=           2  read in
    real space projection operators read in
  non local Contribution for L=           0  read in
    real space projection operators read in
  non local Contribution for L=           0  read in
    real space projection operators read in
  non local Contribution for L=           1  read in
    real space projection operators read in
  non local Contribution for L=           1  read in
    real space projection operators read in
    PAW grid and wavefunctions read in
 
   number of l-projection  operators is LMAX  =           6
   number of lm-projection operators is LMMAX =          18
 

 ----------------------------------------------------------------------------- 
|                                                                             |
|  ADVICE TO THIS USER RUNNING 'VASP/VAMP'   (HEAR YOUR MASTER'S VOICE ...):  |
|                                                                             |
|      You have a (more or less) 'large supercell' and for larger cells       |
|      it might be more efficient to use real space projection operators      |
|      So try LREAL= Auto  in the INCAR   file.                               |
|      Mind: If you want to do a very accurate calculations keep the          |
|      reciprocal projection scheme          (i.e. LREAL=.FALSE.)             |
|                                                                             |
 ----------------------------------------------------------------------------- 

 PAW_PBE O_s 07Sep2000                  :
 energy of atom  1       EATOM= -432.2909
 kinetic energy error for atom=    0.0182 (will be added to EATOM!!)
 PAW_PBE Mn 06Sep2000                   :
 energy of atom  2       EATOM= -416.8732
 kinetic energy error for atom=    0.0155 (will be added to EATOM!!)
 
 
 POSCAR: (Mn O2)12  (P1) ~ (Pearson #311740)_1 1 
  positions in direct lattice
  velocities in cartesian coordinates
  No initial velocities read in
 exchange correlation table for  LEXCH =        8
   RHO(1)=    0.500       N(1)  =     2000
   RHO(2)=  100.500       N(2)  =     4000
 


--------------------------------------------------------------------------------------------------------


 ion  position               nearest neighbor table
   1  0.000  0.500  0.349-  29 1.88  29 1.88  25 1.91
   2  0.000  0.500  0.566-  30 1.88  30 1.88  26 1.91
   3  0.000  0.500  0.784-  27 1.91
   4  0.500  0.805  0.174-  31 1.88  31 1.88  28 1.91
   5  0.500  0.195  0.174-  31 1.88  31 1.88  28 1.91
   6  0.500  0.805  0.391-  32 1.88  32 1.88  29 1.91
   7  0.500  0.195  0.391-  32 1.88  32 1.88  29 1.91
   8  0.500  0.805  0.609-  33 1.88  33 1.88  30 1.91
   9  0.500  0.195  0.609-  33 1.88  33 1.88  30 1.91
  10  0.000  0.500  0.216-  28 1.88  28 1.88  25 1.91
  11  0.000  0.500  0.434-  29 1.88  29 1.88  26 1.91
  12  0.000  0.500  0.651-  30 1.88  30 1.88  27 1.91
  13  0.000  0.000  0.240-  34 1.88  34 1.88  31 1.91
  14  0.000  0.000  0.458-  35 1.88  35 1.88  32 1.91
  15  0.000  0.000  0.675-  36 1.88  36 1.88  33 1.91
  16  0.500  0.305  0.283-  25 1.88  25 1.88  34 1.91
  17  0.500  0.695  0.283-  25 1.88  25 1.88  34 1.91
  18  0.500  0.305  0.500-  26 1.88  26 1.88  35 1.91
  19  0.500  0.695  0.500-  26 1.88  26 1.88  35 1.91
  20  0.500  0.305  0.717-  27 1.88  27 1.88  36 1.91
  21  0.500  0.695  0.717-  27 1.88  27 1.88  36 1.91
  22  0.000  0.000  0.325-  34 1.88  34 1.88  32 1.91
  23  0.000  0.000  0.542-  35 1.88  35 1.88  33 1.91
  24  0.000  0.000  0.760-  36 1.88  36 1.88
  25  0.000  0.500  0.283-  16 1.88  17 1.88  16 1.88  17 1.88   1 1.91  10 1.91
  26  0.000  0.500  0.500-  18 1.88  19 1.88  18 1.88  19 1.88   2 1.91  11 1.91
  27  0.000  0.500  0.717-  20 1.88  21 1.88  20 1.88  21 1.88  12 1.91   3 1.91
  28  0.500  0.500  0.174-  10 1.88  10 1.88   4 1.91   5 1.91
  29  0.500  0.500  0.391-  11 1.88  11 1.88   1 1.88   1 1.88   7 1.91   6 1.91
  30  0.500  0.500  0.609-   2 1.88   2 1.88  12 1.88  12 1.88   9 1.91   8 1.91
  31  0.000  0.000  0.174-   4 1.88   5 1.88   4 1.88   5 1.88  13 1.91
  32  0.000  0.000  0.391-   6 1.88   7 1.88   6 1.88   7 1.88  14 1.91  22 1.91
  33  0.000  0.000  0.609-   8 1.88   9 1.88   8 1.88   9 1.88  23 1.91  15 1.91
  34  0.500  0.000  0.283-  22 1.88  22 1.88  13 1.88  13 1.88  17 1.91  16 1.91
  35  0.500  0.000  0.500-  14 1.88  23 1.88  14 1.88  23 1.88  19 1.91  18 1.91
  36  0.500  0.000  0.717-  15 1.88  15 1.88  24 1.88  24 1.88  21 1.91  20 1.91
 
  LATTYP: Found a simple orthorhombic cell.
 ALAT       =     2.8700000000
 B/A-ratio  =     2.1779860627
 C/A-ratio  =    10.0182787456
  
  Lattice vectors:
  
 A1 = (   2.8700000000,   0.0000000000,   0.0000000000)
 A2 = (   0.0000000000,   6.2508200000,   0.0000000000)
 A3 = (   0.0000000000,   0.0000000000,  28.7524600000)


Analysis of symmetry for initial positions (statically):
=====================================================================
 Subroutine PRICEL returns:
 Original cell was already a primitive cell.
 

 Routine SETGRP: Setting up the symmetry group for a 
 simple orthorhombic supercell.


 Subroutine GETGRP returns: Found  4 space group operations
 (whereof  4 operations were pure point group operations)
 out of a pool of  8 trial point group operations.


The static configuration has the point symmetry C_2v.


Analysis of symmetry for dynamics (positions and initial velocities):
=====================================================================
 Subroutine PRICEL returns:
 Original cell was already a primitive cell.
 

 Routine SETGRP: Setting up the symmetry group for a 
 simple orthorhombic supercell.


 Subroutine GETGRP returns: Found  4 space group operations
 (whereof  4 operations were pure point group operations)
 out of a pool of  8 trial point group operations.


The dynamic configuration has the point symmetry C_2v.


Analysis of constrained symmetry for selective dynamics:
=====================================================================
 Subroutine PRICEL returns:
 Original cell was already a primitive cell.
 

 Routine SETGRP: Setting up the symmetry group for a 
 simple orthorhombic supercell.


 Subroutine GETGRP returns: Found  4 space group operations
 (whereof  4 operations were pure point group operations)
 out of a pool of  8 trial point group operations.


The constrained configuration has the point symmetry C_2v.


Analysis of magnetic symmetry:
=====================================================================

 Subroutine MAGSYM returns: Found  4 space group operations
 (whereof  4 operations were pure point group operations)
 out of a pool of  4 trial space group operations
 (whereof  4 operations were pure point group operations)
 and found also     1 'primitive' translations


The magnetic configuration has the point symmetry C_2v.


 irot  :   1
 --------------------------------------------------------------------
 isymop:   1   0   0
           0   1   0
           0   0   1

 gtrans:     0.0000000     0.0000000     0.0000000

 ptrans:     0.0000000     0.0000000     0.0000000
 rotmap:
 (   1->   1)  (   2->   2)  (   3->   3)  (   4->   4)  (   5->   5) 
 (   6->   6)  (   7->   7)  (   8->   8)  (   9->   9)  (  10->  10) 
 (  11->  11)  (  12->  12)  (  13->  13)  (  14->  14)  (  15->  15) 
 (  16->  16)  (  17->  17)  (  18->  18)  (  19->  19)  (  20->  20) 
 (  21->  21)  (  22->  22)  (  23->  23)  (  24->  24)  (  25->  25) 
 (  26->  26)  (  27->  27)  (  28->  28)  (  29->  29)  (  30->  30) 
 (  31->  31)  (  32->  32)  (  33->  33)  (  34->  34)  (  35->  35) 
 (  36->  36) 


 irot  :   2
 --------------------------------------------------------------------
 isymop:  -1   0   0
           0  -1   0
           0   0   1

 gtrans:     0.0000000     0.0000000     0.0000000

 ptrans:     0.0000000     0.0000000     0.0000000
 rotmap:
 (   1->   1)  (   2->   2)  (   3->   3)  (   4->   5)  (   5->   4) 
 (   6->   7)  (   7->   6)  (   8->   9)  (   9->   8)  (  10->  10) 
 (  11->  11)  (  12->  12)  (  13->  13)  (  14->  14)  (  15->  15) 
 (  16->  17)  (  17->  16)  (  18->  19)  (  19->  18)  (  20->  21) 
 (  21->  20)  (  22->  22)  (  23->  23)  (  24->  24)  (  25->  25) 
 (  26->  26)  (  27->  27)  (  28->  28)  (  29->  29)  (  30->  30) 
 (  31->  31)  (  32->  32)  (  33->  33)  (  34->  34)  (  35->  35) 
 (  36->  36) 


 irot  :   3
 --------------------------------------------------------------------
 isymop:   1   0   0
           0  -1   0
           0   0   1

 gtrans:     0.0000000     0.0000000     0.0000000

 ptrans:     0.0000000     0.0000000     0.0000000
 rotmap:
 (   1->   1)  (   2->   2)  (   3->   3)  (   4->   5)  (   5->   4) 
 (   6->   7)  (   7->   6)  (   8->   9)  (   9->   8)  (  10->  10) 
 (  11->  11)  (  12->  12)  (  13->  13)  (  14->  14)  (  15->  15) 
 (  16->  17)  (  17->  16)  (  18->  19)  (  19->  18)  (  20->  21) 
 (  21->  20)  (  22->  22)  (  23->  23)  (  24->  24)  (  25->  25) 
 (  26->  26)  (  27->  27)  (  28->  28)  (  29->  29)  (  30->  30) 
 (  31->  31)  (  32->  32)  (  33->  33)  (  34->  34)  (  35->  35) 
 (  36->  36) 


 irot  :   4
 --------------------------------------------------------------------
 isymop:  -1   0   0
           0   1   0
           0   0   1

 gtrans:     0.0000000     0.0000000     0.0000000

 ptrans:     0.0000000     0.0000000     0.0000000
 rotmap:
 (   1->   1)  (   2->   2)  (   3->   3)  (   4->   4)  (   5->   5) 
 (   6->   6)  (   7->   7)  (   8->   8)  (   9->   9)  (  10->  10) 
 (  11->  11)  (  12->  12)  (  13->  13)  (  14->  14)  (  15->  15) 
 (  16->  16)  (  17->  17)  (  18->  18)  (  19->  19)  (  20->  20) 
 (  21->  21)  (  22->  22)  (  23->  23)  (  24->  24)  (  25->  25) 
 (  26->  26)  (  27->  27)  (  28->  28)  (  29->  29)  (  30->  30) 
 (  31->  31)  (  32->  32)  (  33->  33)  (  34->  34)  (  35->  35) 
 (  36->  36) 
 
 
 KPOINTS: Automatic mesh                          

Automatic generation of k-mesh.
Space group operators:
 irot       det(A)        alpha          n_x          n_y          n_z        tau_x        tau_y        tau_z
    1     1.000000     0.000000     1.000000     0.000000     0.000000     0.000000     0.000000     0.000000
    2     1.000000   180.000000     0.000000     0.000000     1.000000     0.000000     0.000000     0.000000
    3    -1.000000   180.000000     0.000000     1.000000     0.000000     0.000000     0.000000     0.000000
    4    -1.000000   180.000000     1.000000     0.000000     0.000000     0.000000     0.000000     0.000000
 
 Subroutine IBZKPT returns following result:
 ===========================================
 
 Found      2 irreducible k-points:
 
 Following reciprocal coordinates:
            Coordinates               Weight
  0.000000  0.000000  0.000000      1.000000
  0.500000  0.000000  0.000000      1.000000
 
 Following cartesian coordinates:
            Coordinates               Weight
  0.000000  0.000000  0.000000      1.000000
  0.174216  0.000000  0.000000      1.000000
 


--------------------------------------------------------------------------------------------------------




 Dimension of arrays:
   k-points           NKPTS =      2   k-points in BZ     NKDIM =      2   number of bands    NBANDS=    136
   number of dos      NEDOS =    301   number of ions     NIONS =     36
   non local maximal  LDIM  =      6   non local SUM 2l+1 LMDIM =     18
   total plane-waves  NPLWV =  58800
   max r-space proj   IRMAX =      1   max aug-charges    IRDMAX=   4390
   dimension x,y,z NGX =    14 NGY =   30 NGZ =  140
   dimension x,y,z NGXF=    28 NGYF=   60 NGZF=  280
   support grid    NGXF=    28 NGYF=   60 NGZF=  280
   ions per type =              24  12
 NGX,Y,Z   is equivalent  to a cutoff of   8.11,  7.98,  8.09 a.u.
 NGXF,Y,Z  is equivalent  to a cutoff of  16.22, 15.96, 16.19 a.u.


 I would recommend the setting:
   dimension x,y,z NGX =    13 NGY =   29 NGZ =  135
 SYSTEM =  (Mn O2)12  (P1) ~ (Pearson              
 POSCAR =  (Mn O2)12  (P1) ~ (Pearson #311740)_1 1 

 Startparameter for this run:
   NWRITE =      1    write-flag & timer
   PREC   = normal    normal or accurate (medium, high low for compatibility)
   ISTART =      0    job   : 0-new  1-cont  2-samecut
   ICHARG =      2    charge: 1-file 2-atom 10-const
   ISPIN  =      2    spin polarized calculation?
   LNONCOLLINEAR =      F non collinear calculations
   LSORBIT =      F    spin-orbit coupling
   INIWAV =      1    electr: 0-lowe 1-rand  2-diag
   LASPH  =      F    aspherical Exc in radial PAW
   METAGGA=      F    non-selfconsistent MetaGGA calc.

 Electronic Relaxation 1
   ENCUT  =  367.7 eV  27.02 Ry    5.20 a.u.   4.49  9.77 44.95*2*pi/ulx,y,z
   ENINI  =  367.7     initial cutoff
   ENAUG  =  500.7 eV  augmentation charge cutoff
   NELM   =     60;   NELMIN=  2; NELMDL= -5     # of ELM steps 
   EDIFF  = 0.1E-03   stopping-criterion for ELM
   LREAL  =      F    real-space projection
   NLSPLINE    = F    spline interpolate recip. space projectors
   LCOMPAT=      F    compatible to vasp.4.4
   GGA_COMPAT  = T    GGA compatible to vasp.4.4-vasp.4.6
   LMAXPAW     = -100 max onsite density
   LMAXMIX     =    4 max onsite mixed and CHGCAR
   VOSKOWN=      1    Vosko Wilk Nusair interpolation
   ROPT   =    0.00000   0.00000
 Ionic relaxation
   EDIFFG = 0.1E-02   stopping-criterion for IOM
   NSW    =    100    number of steps for IOM
   NBLOCK =      1;   KBLOCK =    100    inner block; outer block 
   IBRION =      2    ionic relax: 0-MD 1-quasi-New 2-CG
   NFREE  =      1    steps in history (QN), initial steepest desc. (CG)
   ISIF   =      2    stress and relaxation
   IWAVPR =     11    prediction:  0-non 1-charg 2-wave 3-comb
   ISYM   =      2    0-nonsym 1-usesym 2-fastsym
   LCORR  =      T    Harris-Foulkes like correction to forces

   POTIM  = 0.5000    time-step for ionic-motion
   TEIN   =    0.0    initial temperature
   TEBEG  =    0.0;   TEEND  =   0.0 temperature during run
   SMASS  =  -3.00    Nose mass-parameter (am)
   estimated Nose-frequenzy (Omega)   =  0.10E-29 period in steps =****** mass=  -0.188E-27a.u.
   SCALEE = 1.0000    scale energy and forces
   NPACO  =    256;   APACO  = 16.0  distance and # of slots for P.C.
   PSTRESS=    0.0 pullay stress

  Mass of Ions in am
   POMASS =  16.00 54.94
  Ionic Valenz
   ZVAL   =   6.00  7.00
  Atomic Wigner-Seitz radii
   RWIGS  =  -1.00 -1.00
  virtual crystal weights 
   VCA    =   1.00  1.00
   NELECT =     228.0000    total number of electrons
   NUPDOWN=      -1.0000    fix difference up-down

 DOS related values:
   EMIN   =  10.00;   EMAX   =-10.00  energy-range for DOS
   EFERMI =   0.00
   ISMEAR =     1;   SIGMA  =   0.20  broadening in eV -4-tet -1-fermi 0-gaus

 Electronic relaxation 2 (details)
   IALGO  =     38    algorithm
   LDIAG  =      T    sub-space diagonalisation (order eigenvalues)
   LSUBROT=      T    optimize rotation matrix (better conditioning)
   TURBO    =      0    0=normal 1=particle mesh
   IRESTART =      0    0=no restart 2=restart with 2 vectors
   NREBOOT  =      0    no. of reboots
   NMIN     =      0    reboot dimension
   EREF     =   0.00    reference energy to select bands
   IMIX   =      4    mixing-type and parameters
     AMIX     =   0.40;   BMIX     =  1.00
     AMIX_MAG =   1.60;   BMIX_MAG =  1.00
     AMIN     =   0.10
     WC   =   100.;   INIMIX=   1;  MIXPRE=   1;  MAXMIX= -45

 Intra band minimization:
   WEIMIN = 0.0010     energy-eigenvalue tresh-hold
   EBREAK =  0.18E-06  absolut break condition
   DEPER  =   0.30     relativ break condition  

   TIME   =   0.40     timestep for ELM

  volume/ion in A,a.u.               =      14.33        96.69
  Fermi-wavevector in a.u.,A,eV,Ry     =   1.247063  2.356608 21.159328  1.555167
  Thomas-Fermi vector in A             =   2.381212
 
 Write flags
   LWAVE  =      F    write WAVECAR
   LCHARG =      F    write CHGCAR
   LVTOT  =      F    write LOCPOT, total local potential
   LVHAR  =      F    write LOCPOT, Hartree potential only
   LELF   =      F    write electronic localiz. function (ELF)
   LORBIT =      0    0 simple, 1 ext, 2 COOP (PROOUT)


 Dipole corrections
   LMONO  =      F    monopole corrections only (constant potential shift)
   LDIPOL =      F    correct potential (dipole corrections)
   IDIPOL =      0    1-x, 2-y, 3-z, 4-all directions 
   EPSILON=  1.0000000 bulk dielectric constant

 LDA+U is selected, type is set to LDAUTYPE =  2
   angular momentum for each species LDAUL =    -1    2
   U (eV)           for each species LDAUU =   0.0  3.9
   J (eV)           for each species LDAUJ =   0.0  0.0
 Exchange correlation treatment:
   GGA     =    --    GGA type
   LEXCH   =     8    internal setting for exchange type
   VOSKOWN=      1    Vosko Wilk Nusair interpolation
   LHFCALC =     F    Hartree Fock is set to
   LHFONE  =     F    Hartree Fock one center treatment
   AEXX    =    0.0000 exact exchange contribution

 Linear response parameters
   LEPSILON=     F    determine dielectric tensor
   LRPA    =     F    only Hartree local field effects (RPA)
   LNABLA  =     F    use nabla operator in PAW spheres
   LVEL    =     F    velocity operator in full k-point grid
   LINTERFAST=   F  fast interpolation
   KINTER  =     0    interpolate to denser k-point grid
   CSHIFT  =0.1000    complex shift for real part using Kramers Kronig
   OMEGAMAX=  -1.0    maximum frequency
   DEG_THRESHOLD= 0.2000000E-02 threshold for treating states as degnerate
   RTIME   =    0.100 relaxation time in fs

 Orbital magnetization related:
   ORBITALMAG=     F  switch on orbital magnetization
   LCHIMAG   =     F  perturbation theory with respect to B field
   DQ        =  0.001000  dq finite difference perturbation B field



--------------------------------------------------------------------------------------------------------


 conjugate gradient relaxation of ions
   using selective dynamics as specified on POSCAR
 charge density and potential will be updated during run
 spin polarized calculation
 Variant of blocked Davidson
 Davidson routine will perform the subspace rotation
 perform sub-space diagonalisation
    after iterative eigenvector-optimisation
 modified Broyden-mixing scheme, WC =      100.0
 initial mixing is a Kerker type mixing with AMIX =  0.4000 and BMIX =      1.0000
 Hartree-type preconditioning will be used
 using additional bands           22
 reciprocal scheme for non local part
 use partial core corrections
 calculate Harris-corrections to forces 
   (improved forces if not selfconsistent)
 use gradient corrections 
 use of overlap-Matrix (Vanderbilt PP)
 Methfessel and Paxton  Order N= 1 SIGMA  =   0.20


--------------------------------------------------------------------------------------------------------


  energy-cutoff  :      367.69
  volume of cell :      515.81
      direct lattice vectors                 reciprocal lattice vectors
     2.870000000  0.000000000  0.000000000     0.348432056  0.000000000  0.000000000
     0.000000000  6.250820000  0.000000000     0.000000000  0.159979011  0.000000000
     0.000000000  0.000000000 28.752460000     0.000000000  0.000000000  0.034779633

  length of vectors
     2.870000000  6.250820000 28.752460000     0.348432056  0.159979011  0.034779633


 
 k-points in units of 2pi/SCALE and weight: Automatic mesh                          
   0.00000000  0.00000000  0.00000000       0.500
   0.17421603  0.00000000  0.00000000       0.500
 
 k-points in reciprocal lattice and weights: Automatic mesh                          
   0.00000000  0.00000000  0.00000000       0.500
   0.50000000  0.00000000  0.00000000       0.500
 
 position of ions in fractional coordinates (direct lattice) 
   0.00000000  0.50000000  0.34885832
   0.00000000  0.50000000  0.56625955
   0.00000000  0.50000000  0.78366077
   0.50000000  0.80478000  0.17389816
   0.50000000  0.19522000  0.17389816
   0.50000000  0.80478000  0.39129939
   0.50000000  0.19522000  0.39129939
   0.50000000  0.80478000  0.60870061
   0.50000000  0.19522000  0.60870061
   0.00000000  0.50000000  0.21633923
   0.00000000  0.50000000  0.43374045
   0.00000000  0.50000000  0.65114168
   0.00000000  0.00000000  0.24015771
   0.00000000  0.00000000  0.45755893
   0.00000000  0.00000000  0.67496016
   0.50000000  0.30478000  0.28259878
   0.50000000  0.69522000  0.28259878
   0.50000000  0.30478000  0.50000000
   0.50000000  0.69522000  0.50000000
   0.50000000  0.30478000  0.71740122
   0.50000000  0.69522000  0.71740122
   0.00000000  0.00000000  0.32503984
   0.00000000  0.00000000  0.54244107
   0.00000000  0.00000000  0.75984229
   0.00000000  0.50000000  0.28259878
   0.00000000  0.50000000  0.50000000
   0.00000000  0.50000000  0.71740122
   0.50000000  0.50000000  0.17389816
   0.50000000  0.50000000  0.39129939
   0.50000000  0.50000000  0.60870061
   0.00000000  0.00000000  0.17389816
   0.00000000  0.00000000  0.39129939
   0.00000000  0.00000000  0.60870061
   0.50000000  0.00000000  0.28259878
   0.50000000  0.00000000  0.50000000
   0.50000000  0.00000000  0.71740122
 
 position of ions in cartesian coordinates  (Angst):
   0.00000000  3.12541000 10.03053489
   0.00000000  3.12541000 16.28135506
   0.00000000  3.12541000 22.53217494
   1.43500000  5.03053492  4.99999989
   1.43500000  1.22028508  4.99999989
   1.43500000  5.03053492 11.25082006
   1.43500000  1.22028508 11.25082006
   1.43500000  5.03053492 17.50163994
   1.43500000  1.22028508 17.50163994
   0.00000000  3.12541000  6.22028506
   0.00000000  3.12541000 12.47110494
   0.00000000  3.12541000 18.72192511
   0.00000000  0.00000000  6.90512495
   0.00000000  0.00000000 13.15594483
   0.00000000  0.00000000 19.40676500
   1.43500000  1.90512492  8.12541012
   1.43500000  4.34569508  8.12541012
   1.43500000  1.90512492 14.37623000
   1.43500000  4.34569508 14.37623000
   1.43500000  1.90512492 20.62704988
   1.43500000  4.34569508 20.62704988
   0.00000000  0.00000000  9.34569500
   0.00000000  0.00000000 15.59651517
   0.00000000  0.00000000 21.84733505
   0.00000000  3.12541000  8.12541012
   0.00000000  3.12541000 14.37623000
   0.00000000  3.12541000 20.62704988
   1.43500000  3.12541000  4.99999989
   1.43500000  3.12541000 11.25082006
   1.43500000  3.12541000 17.50163994
   0.00000000  0.00000000  4.99999989
   0.00000000  0.00000000 11.25082006
   0.00000000  0.00000000 17.50163994
   1.43500000  0.00000000  8.12541012
   1.43500000  0.00000000 14.37623000
   1.43500000  0.00000000 20.62704988
 


--------------------------------------------------------------------------------------------------------


 k-point  1 :   0.0000 0.0000 0.0000  plane waves:    8319
 k-point  2 :   0.5000 0.0000 0.0000  plane waves:    8204

 maximum and minimum number of plane-waves per node :      1052     1021

 maximum number of plane-waves:      8319
 maximum index in each direction: 
   IXMAX=    4   IYMAX=    9   IZMAX=   44
   IXMIN=   -4   IYMIN=   -9   IZMIN=  -44

 WARNING: aliasing errors must be expected set NGX to  18 to avoid them
 WARNING: aliasing errors must be expected set NGY to  38 to avoid them
 WARNING: aliasing errors must be expected set NGZ to 178 to avoid them
 aliasing errors are usually negligible using standard VASP settings
 and one can safely disregard these warnings

 parallel 3D FFT for wavefunctions:
    minimum data exchange during FFTs selected (reduces bandwidth)
 parallel 3D FFT for charge:
    minimum data exchange during FFTs selected (reduces bandwidth)


 total amount of memory used by VASP on root node    35314. kBytes
========================================================================

   base      :      30000. kBytes
   nonl-proj :       1179. kBytes
   fftplans  :        772. kBytes
   grid      :       2025. kBytes
   one-center:        155. kBytes
   wavefun   :       1183. kBytes
 
 Broyden mixing: mesh for mixing (old mesh)
   NGX =  9   NGY = 19   NGZ = 89
  (NGX  = 28   NGY  = 60   NGZ  =280)
  gives a total of  15219 points

 initial charge density was supplied:
 charge density of overlapping atoms calculated
 number of electron     228.0000000 magnetization       0.0000000
 keeping initial charge density in first step


--------------------------------------------------------------------------------------------------------


 Maximum index for augmentation-charges          308 (set IRDMAX)


--------------------------------------------------------------------------------------------------------


 First call to EWALD:  gamma=   0.221
 Maximum number of real-space cells 7x 3x 1
 Maximum number of reciprocal cells 1x 2x 9

 FEWALD executed in parallel
    FEWALD:  cpu time    0.00: real time    0.00


----------------------------------------- Iteration    1(   1)  ---------------------------------------


    POTLOK:  cpu time    0.04: real time    0.04
    SETDIJ:  cpu time    0.01: real time    0.01
     EDDAV:  cpu time    0.47: real time    0.52
       DOS:  cpu time    0.00: real time    0.00
    --------------------------------------------
      LOOP:  cpu time    0.52: real time    0.64

 eigenvalue-minimisations  :  1088
 total energy-change (2. order) : 0.3054484E+04  (-0.8162184E+04)
 number of electron     228.0000000 magnetization      -0.0000000
 augmentation part      228.0000000 magnetization      -0.0000000

 Free energy of the ion-electron system (eV)
  ---------------------------------------------------
  alpha Z        PSCENC =       610.67547827
  Ewald energy   TEWEN  =     63927.06616780
  -1/2 Hartree   DENC   =    -79266.51148228
  -exchange  EXHF       =         0.00000000
  -V(xc)+E(xc)   XCENC  =       534.70708665
  PAW double counting   =     10909.34114156   -10745.31768692
  entropy T*S    EENTRO =        -0.04274855
  eigenvalues    EBANDS =      1707.72685131
  atomic energy  EATOM  =     15376.83878752
  ---------------------------------------------------
  free energy    TOTEN  =      3054.48359535 eV

  energy without entropy =     3054.52634390  energy(sigma->0) =     3054.49784487


--------------------------------------------------------------------------------------------------------




----------------------------------------- Iteration    1(   2)  ---------------------------------------


     EDDAV:  cpu time    0.45: real time    0.45
       DOS:  cpu time    0.00: real time    0.00
    --------------------------------------------
      LOOP:  cpu time    0.45: real time    0.53

 eigenvalue-minimisations  :  1088
 total energy-change (2. order) :-0.2653190E+04  (-0.2544933E+04)
 number of electron     228.0000000 magnetization      -0.0000000
 augmentation part      228.0000000 magnetization      -0.0000000

 Free energy of the ion-electron system (eV)
  ---------------------------------------------------
  alpha Z        PSCENC =       610.67547827
  Ewald energy   TEWEN  =     63927.06616780
  -1/2 Hartree   DENC   =    -79266.51148228
  -exchange  EXHF       =         0.00000000
  -V(xc)+E(xc)   XCENC  =       534.70708665
  PAW double counting   =     10909.34114156   -10745.31768692
  entropy T*S    EENTRO =        -0.02428363
  eigenvalues    EBANDS =      -945.48129772
  atomic energy  EATOM  =     15376.83878752
  ---------------------------------------------------
  free energy    TOTEN  =       401.29391125 eV

  energy without entropy =      401.31819488  energy(sigma->0) =      401.30200579


--------------------------------------------------------------------------------------------------------




----------------------------------------- Iteration    1(   3)  ---------------------------------------


     EDDAV:  cpu time    0.59: real time    0.59
       DOS:  cpu time    0.00: real time    0.00
    --------------------------------------------
      LOOP:  cpu time    0.59: real time    0.71

 eigenvalue-minimisations  :  1592
 total energy-change (2. order) :-0.6706659E+03  (-0.6442451E+03)
 number of electron     228.0000000 magnetization      -0.0000000
 augmentation part      228.0000000 magnetization      -0.0000000

 Free energy of the ion-electron system (eV)
  ---------------------------------------------------
  alpha Z        PSCENC =       610.67547827
  Ewald energy   TEWEN  =     63927.06616780
  -1/2 Hartree   DENC   =    -79266.51148228
  -exchange  EXHF       =         0.00000000
  -V(xc)+E(xc)   XCENC  =       534.70708665
  PAW double counting   =     10909.34114156   -10745.31768692
  entropy T*S    EENTRO =        -0.01032198
  eigenvalues    EBANDS =     -1616.16119323
  atomic energy  EATOM  =     15376.83878752
  ---------------------------------------------------
  free energy    TOTEN  =      -269.37202262 eV

  energy without entropy =     -269.36170064  energy(sigma->0) =     -269.36858196


--------------------------------------------------------------------------------------------------------




----------------------------------------- Iteration    1(   4)  ---------------------------------------


     EDDAV:  cpu time    0.62: real time    0.62
       DOS:  cpu time    0.00: real time    0.00
    --------------------------------------------
      LOOP:  cpu time    0.62: real time    0.71

 eigenvalue-minimisations  :  1696
 total energy-change (2. order) :-0.6968990E+02  (-0.6821235E+02)
 number of electron     228.0000000 magnetization      -0.0000000
 augmentation part      228.0000000 magnetization      -0.0000000

 Free energy of the ion-electron system (eV)
  ---------------------------------------------------
  alpha Z        PSCENC =       610.67547827
  Ewald energy   TEWEN  =     63927.06616780
  -1/2 Hartree   DENC   =    -79266.51148228
  -exchange  EXHF       =         0.00000000
  -V(xc)+E(xc)   XCENC  =       534.70708665
  PAW double counting   =     10909.34114156   -10745.31768692
  entropy T*S    EENTRO =         0.00061938
  eigenvalues    EBANDS =     -1685.86203259
  atomic energy  EATOM  =     15376.83878752
  ---------------------------------------------------
  free energy    TOTEN  =      -339.06192061 eV

  energy without entropy =     -339.06254000  energy(sigma->0) =     -339.06212708


--------------------------------------------------------------------------------------------------------




----------------------------------------- Iteration    1(   5)  ---------------------------------------


     EDDAV:  cpu time    0.62: real time    0.62
       DOS:  cpu time    0.00: real time    0.00
    CHARGE:  cpu time    0.03: real time    0.03
    MIXING:  cpu time    0.00: real time    0.00
    --------------------------------------------
      LOOP:  cpu time    0.65: real time    0.76

 eigenvalue-minimisations  :  1688
 total energy-change (2. order) :-0.2255097E+01  (-0.2208868E+01)
 number of electron     227.9999888 magnetization       0.0817354
 augmentation part       65.0973787 magnetization      -0.4989705

 Broyden mixing:
  rms(total) = 0.66318E+01    rms(broyden)= 0.66233E+01
  rms(prec ) = 0.69973E+01
  weight for this iteration     100.00

 Free energy of the ion-electron system (eV)
  ---------------------------------------------------
  alpha Z        PSCENC =       610.67547827
  Ewald energy   TEWEN  =     63927.06616780
  -1/2 Hartree   DENC   =    -79266.51148228
  -exchange  EXHF       =         0.00000000
  -V(xc)+E(xc)   XCENC  =       534.70708665
  PAW double counting   =     10909.34114156   -10745.31768692
  entropy T*S    EENTRO =        -0.00162012
  eigenvalues    EBANDS =     -1688.11489056
  atomic energy  EATOM  =     15376.83878752
  ---------------------------------------------------
  free energy    TOTEN  =      -341.31701809 eV

  energy without entropy =     -341.31539797  energy(sigma->0) =     -341.31647805


--------------------------------------------------------------------------------------------------------




----------------------------------------- Iteration    1(   6)  ---------------------------------------


    POTLOK:  cpu time    0.04: real time    0.04
    SETDIJ:  cpu time    0.01: real time    0.01
     EDDAV:  cpu time    0.70: real time    0.71
       DOS:  cpu time    0.00: real time    0.00
    CHARGE:  cpu time    0.03: real time    0.03
    MIXING:  cpu time    0.00: real time    0.00
    --------------------------------------------
      LOOP:  cpu time    0.78: real time    0.87

 eigenvalue-minimisations  :  1928
 total energy-change (2. order) :-0.5218604E+02  (-0.1703063E+03)
 number of electron     227.9999361 magnetization       0.1255435
 augmentation part       81.0634960 magnetization      -0.5198257

 Broyden mixing:
  rms(total) = 0.11383E+02    rms(broyden)= 0.11379E+02
  rms(prec ) = 0.17708E+02
  weight for this iteration     100.00

 eigenvalues of (default mixing * dielectric matrix)
  average eigenvalue GAMMA=   0.3319
  0.3319

 Free energy of the ion-electron system (eV)
  ---------------------------------------------------
  alpha Z        PSCENC =       610.67547827
  Ewald energy   TEWEN  =     63927.06616780
  -1/2 Hartree   DENC   =    -79319.86916242
  -exchange  EXHF       =         0.00000000
  -V(xc)+E(xc)   XCENC  =       562.32767511
  PAW double counting   =     11863.63628192   -11689.78010152
  entropy T*S    EENTRO =         0.01223837
  eigenvalues    EBANDS =     -1724.41042368
  atomic energy  EATOM  =     15376.83878752
  ---------------------------------------------------
  free energy    TOTEN  =      -393.50305864 eV

  energy without entropy =     -393.51529701  energy(sigma->0) =     -393.50713809


--------------------------------------------------------------------------------------------------------




----------------------------------------- Iteration    1(   7)  ---------------------------------------


    POTLOK:  cpu time    0.04: real time    0.04
    SETDIJ:  cpu time    0.01: real time    0.01
     EDDAV:  cpu time    0.74: real time    0.74
       DOS:  cpu time    0.00: real time    0.00
    CHARGE:  cpu time    0.03: real time    0.03
    MIXING:  cpu time    0.00: real time    0.00
    --------------------------------------------
      LOOP:  cpu time    0.82: real time    0.91

 eigenvalue-minimisations  :  2096
 total energy-change (2. order) :-0.5066933E+03  (-0.7904941E+03)
 number of electron     227.9999485 magnetization       0.1475716
 augmentation part       74.2469858 magnetization       0.0377981

 Broyden mixing:
  rms(total) = 0.15627E+02    rms(broyden)= 0.15623E+02
  rms(prec ) = 0.30177E+02
  weight for this iteration     100.00

 eigenvalues of (default mixing * dielectric matrix)
  average eigenvalue GAMMA=   0.2021
  0.3382  0.0661

 Free energy of the ion-electron system (eV)
  ---------------------------------------------------
  alpha Z        PSCENC =       610.67547827
  Ewald energy   TEWEN  =     63927.06616780
  -1/2 Hartree   DENC   =    -79555.07624114
  -exchange  EXHF       =         0.00000000
  -V(xc)+E(xc)   XCENC  =       551.45227125
  PAW double counting   =     11934.54913319   -11786.74210800
  entropy T*S    EENTRO =         0.00605345
  eigenvalues    EBANDS =     -1958.96586466
  atomic energy  EATOM  =     15376.83878752
  ---------------------------------------------------
  free energy    TOTEN  =      -900.19632232 eV

  energy without entropy =     -900.20237577  energy(sigma->0) =     -900.19834014


--------------------------------------------------------------------------------------------------------




----------------------------------------- Iteration    1(   8)  ---------------------------------------


    POTLOK:  cpu time    0.04: real time    0.04
    SETDIJ:  cpu time    0.01: real time    0.01
     EDDAV:  cpu time    0.62: real time    0.62
       DOS:  cpu time    0.00: real time    0.00
    CHARGE:  cpu time    0.03: real time    0.03
    MIXING:  cpu time    0.00: real time    0.00
    --------------------------------------------
      LOOP:  cpu time    0.69: real time    0.79

 eigenvalue-minimisations  :  1688
 total energy-change (2. order) : 0.6527410E+03  (-0.4299207E+03)
 number of electron     227.9999585 magnetization       0.1360849
 augmentation part       70.9344276 magnetization       1.0753089

 Broyden mixing:
  rms(total) = 0.83956E+01    rms(broyden)= 0.83928E+01
  rms(prec ) = 0.12527E+02
  weight for this iteration     100.00

 eigenvalues of (default mixing * dielectric matrix)
  average eigenvalue GAMMA=   0.1867
  0.3203  0.1200  0.1200

 Free energy of the ion-electron system (eV)
  ---------------------------------------------------
  alpha Z        PSCENC =       610.67547827
  Ewald energy   TEWEN  =     63927.06616780
  -1/2 Hartree   DENC   =    -79710.67548914
  -exchange  EXHF       =         0.00000000
  -V(xc)+E(xc)   XCENC  =       540.92916177
  PAW double counting   =     11970.29635008   -11845.19655702
  entropy T*S    EENTRO =        -0.04535900
  eigenvalues    EBANDS =     -1117.34390240
  atomic energy  EATOM  =     15376.83878752
  ---------------------------------------------------
  free energy    TOTEN  =      -247.45536212 eV

  energy without entropy =     -247.41000312  energy(sigma->0) =     -247.44024245


--------------------------------------------------------------------------------------------------------




----------------------------------------- Iteration    1(   9)  ---------------------------------------


    POTLOK:  cpu time    0.04: real time    0.04
    SETDIJ:  cpu time    0.01: real time    0.01
     EDDAV:  cpu time    0.63: real time    0.63
       DOS:  cpu time    0.00: real time    0.00
    CHARGE:  cpu time    0.03: real time    0.03
    MIXING:  cpu time    0.00: real time    0.00
    --------------------------------------------
      LOOP:  cpu time    0.71: real time    1.01

 eigenvalue-minimisations  :  1736
 total energy-change (2. order) : 0.6554091E+01  (-0.9210717E+02)
 number of electron     227.9999788 magnetization       0.1980214
 augmentation part       65.5879936 magnetization      -0.4307767

 Broyden mixing:
  rms(total) = 0.34877E+01    rms(broyden)= 0.34794E+01
  rms(prec ) = 0.40470E+01
  weight for this iteration     100.00

 eigenvalues of (default mixing * dielectric matrix)
  average eigenvalue GAMMA=   0.2724
  0.6452  0.2426  0.1008  0.1008

 Free energy of the ion-electron system (eV)
  ---------------------------------------------------
  alpha Z        PSCENC =       610.67547827
  Ewald energy   TEWEN  =     63927.06616780
  -1/2 Hartree   DENC   =    -79405.53284453
  -exchange  EXHF       =         0.00000000
  -V(xc)+E(xc)   XCENC  =       539.05649188
  PAW double counting   =     11996.57057139   -11875.44665093
  entropy T*S    EENTRO =         0.01470778
  eigenvalues    EBANDS =     -1410.14397982
  atomic energy  EATOM  =     15376.83878752
  ---------------------------------------------------
  free energy    TOTEN  =      -240.90127064 eV

  energy without entropy =     -240.91597842  energy(sigma->0) =     -240.90617324


--------------------------------------------------------------------------------------------------------




----------------------------------------- Iteration    1(  10)  ---------------------------------------


    POTLOK:  cpu time    0.04: real time    0.04
    SETDIJ:  cpu time    0.01: real time    0.01
     EDDAV:  cpu time    0.63: real time    0.63
       DOS:  cpu time    0.00: real time    0.00
    CHARGE:  cpu time    0.03: real time    0.03
    MIXING:  cpu time    0.00: real time    0.00
    --------------------------------------------
      LOOP:  cpu time    0.70: real time    0.94

 eigenvalue-minimisations  :  1720
 total energy-change (2. order) :-0.8462276E+01  (-0.1933346E+02)
 number of electron     227.9999796 magnetization       0.2125784
 augmentation part       65.6340790 magnetization      -0.0738462

 Broyden mixing:
  rms(total) = 0.30230E+01    rms(broyden)= 0.30214E+01
  rms(prec ) = 0.33348E+01
  weight for this iteration     100.00

 eigenvalues of (default mixing * dielectric matrix)
  average eigenvalue GAMMA=   0.2809
  0.6904  0.2558  0.2558  0.1013  0.1013

 Free energy of the ion-electron system (eV)
  ---------------------------------------------------
  alpha Z        PSCENC =       610.67547827
  Ewald energy   TEWEN  =     63927.06616780
  -1/2 Hartree   DENC   =    -79419.77209211
  -exchange  EXHF       =         0.00000000
  -V(xc)+E(xc)   XCENC  =       541.73921729
  PAW double counting   =     12138.37323070   -12017.41663542
  entropy T*S    EENTRO =        -0.03822328
  eigenvalues    EBANDS =     -1406.82947781
  atomic energy  EATOM  =     15376.83878752
  ---------------------------------------------------
  free energy    TOTEN  =      -249.36354704 eV

  energy without entropy =     -249.32532376  energy(sigma->0) =     -249.35080595


--------------------------------------------------------------------------------------------------------




----------------------------------------- Iteration    1(  11)  ---------------------------------------


    POTLOK:  cpu time    0.04: real time    0.04
    SETDIJ:  cpu time    0.01: real time    0.01
     EDDAV:  cpu time    0.65: real time    0.65
       DOS:  cpu time    0.00: real time    0.00
    CHARGE:  cpu time    0.03: real time    0.03
    MIXING:  cpu time    0.00: real time    0.00
    --------------------------------------------
      LOOP:  cpu time    0.72: real time    0.91

 eigenvalue-minimisations  :  1784
 total energy-change (2. order) : 0.1255303E+01  (-0.3083784E+01)
 number of electron     227.9999803 magnetization       0.2225871
 augmentation part       65.8970970 magnetization      -0.0937954

 Broyden mixing:
  rms(total) = 0.24872E+01    rms(broyden)= 0.24863E+01
  rms(prec ) = 0.27233E+01
  weight for this iteration     100.00

 eigenvalues of (default mixing * dielectric matrix)
  average eigenvalue GAMMA=   0.2879
  0.6486  0.3445  0.3445  0.1014  0.1014  0.1867

 Free energy of the ion-electron system (eV)
  ---------------------------------------------------
  alpha Z        PSCENC =       610.67547827
  Ewald energy   TEWEN  =     63927.06616780
  -1/2 Hartree   DENC   =    -79402.40013343
  -exchange  EXHF       =         0.00000000
  -V(xc)+E(xc)   XCENC  =       543.58254205
  PAW double counting   =     12222.75560386   -12101.19463349
  entropy T*S    EENTRO =        -0.03288894
  eigenvalues    EBANDS =     -1425.39916736
  atomic energy  EATOM  =     15376.83878752
  ---------------------------------------------------
  free energy    TOTEN  =      -248.10824372 eV

  energy without entropy =     -248.07535478  energy(sigma->0) =     -248.09728074


--------------------------------------------------------------------------------------------------------




----------------------------------------- Iteration    1(  12)  ---------------------------------------


    POTLOK:  cpu time    0.04: real time    0.04
    SETDIJ:  cpu time    0.01: real time    0.01
     EDDAV:  cpu time    0.66: real time    0.66
       DOS:  cpu time    0.00: real time    0.00
    CHARGE:  cpu time    0.03: real time    0.03
    MIXING:  cpu time    0.00: real time    0.00
    --------------------------------------------
      LOOP:  cpu time    0.74: real time    0.82

 eigenvalue-minimisations  :  1824
 total energy-change (2. order) : 0.2394713E+00  (-0.4534817E+00)
 number of electron     227.9999791 magnetization       0.2648579
 augmentation part       65.9531115 magnetization      -0.3340409

 Broyden mixing:
  rms(total) = 0.22703E+01    rms(broyden)= 0.22697E+01
  rms(prec ) = 0.25939E+01
  weight for this iteration     100.00

 eigenvalues of (default mixing * dielectric matrix)
  average eigenvalue GAMMA=   0.3119
  0.6149  0.4829  0.4829  0.1008  0.1008  0.2006  0.2006

 Free energy of the ion-electron system (eV)
  ---------------------------------------------------
  alpha Z        PSCENC =       610.67547827
  Ewald energy   TEWEN  =     63927.06616780
  -1/2 Hartree   DENC   =    -79424.90473839
  -exchange  EXHF       =         0.00000000
  -V(xc)+E(xc)   XCENC  =       544.91181953
  PAW double counting   =     12271.01856156   -12148.77870855
  entropy T*S    EENTRO =        -0.03675807
  eigenvalues    EBANDS =     -1404.65938211
  atomic energy  EATOM  =     15376.83878752
  ---------------------------------------------------
  free energy    TOTEN  =      -247.86877244 eV

  energy without entropy =     -247.83201437  energy(sigma->0) =     -247.85651975


--------------------------------------------------------------------------------------------------------




----------------------------------------- Iteration    1(  13)  ---------------------------------------


    POTLOK:  cpu time    0.04: real time    0.04
    SETDIJ:  cpu time    0.01: real time    0.01
     EDDAV:  cpu time    0.71: real time    0.71
       DOS:  cpu time    0.00: real time    0.00
    CHARGE:  cpu time    0.03: real time    0.03
    MIXING:  cpu time    0.00: real time    0.00
    --------------------------------------------
      LOOP:  cpu time    0.78: real time    0.88

 eigenvalue-minimisations  :  1992
 total energy-change (2. order) : 0.9322716E+00  (-0.4315725E+00)
 number of electron     227.9999785 magnetization       0.2935470
 augmentation part       66.4114514 magnetization       0.0171770

 Broyden mixing:
  rms(total) = 0.18198E+01    rms(broyden)= 0.18195E+01
  rms(prec ) = 0.20616E+01
  weight for this iteration     100.00

 eigenvalues of (default mixing * dielectric matrix)
  average eigenvalue GAMMA=   0.3477
  0.6545  0.6545  0.5861  0.2488  0.2488  0.1010  0.1010  0.1873

 Free energy of the ion-electron system (eV)
  ---------------------------------------------------
  alpha Z        PSCENC =       610.67547827
  Ewald energy   TEWEN  =     63927.06616780
  -1/2 Hartree   DENC   =    -79420.42967691
  -exchange  EXHF       =         0.00000000
  -V(xc)+E(xc)   XCENC  =       546.95018128
  PAW double counting   =     12344.89158486   -12221.31121711
  entropy T*S    EENTRO =        -0.01140323
  eigenvalues    EBANDS =     -1411.60640331
  atomic energy  EATOM  =     15376.83878752
  ---------------------------------------------------
  free energy    TOTEN  =      -246.93650084 eV

  energy without entropy =     -246.92509760  energy(sigma->0) =     -246.93269976


--------------------------------------------------------------------------------------------------------




----------------------------------------- Iteration    1(  14)  ---------------------------------------


    POTLOK:  cpu time    0.04: real time    0.04
    SETDIJ:  cpu time    0.01: real time    0.01
     EDDAV:  cpu time    0.70: real time    0.70
       DOS:  cpu time    0.00: real time    0.00
    CHARGE:  cpu time    0.03: real time    0.03
    MIXING:  cpu time    0.00: real time    0.00
    --------------------------------------------
      LOOP:  cpu time    0.78: real time    0.86

 eigenvalue-minimisations  :  1968
 total energy-change (2. order) : 0.5126473E+00  (-0.1593463E+00)
 number of electron     227.9999781 magnetization       0.3225995
 augmentation part       66.6781696 magnetization       0.2388555

 Broyden mixing:
  rms(total) = 0.15354E+01    rms(broyden)= 0.15352E+01
  rms(prec ) = 0.18145E+01
  weight for this iteration     100.00

 eigenvalues of (default mixing * dielectric matrix)
  average eigenvalue GAMMA=   0.4133
  0.8964  0.8964  0.5362  0.3790  0.3790  0.1009  0.1009  0.2153  0.2153

 Free energy of the ion-electron system (eV)
  ---------------------------------------------------
  alpha Z        PSCENC =       610.67547827
  Ewald energy   TEWEN  =     63927.06616780
  -1/2 Hartree   DENC   =    -79430.47537146
  -exchange  EXHF       =         0.00000000
  -V(xc)+E(xc)   XCENC  =       548.82389034
  PAW double counting   =     12406.11026528   -12281.06302933
  entropy T*S    EENTRO =         0.00955423
  eigenvalues    EBANDS =     -1404.40959622
  atomic energy  EATOM  =     15376.83878752
  ---------------------------------------------------
  free energy    TOTEN  =      -246.42385357 eV

  energy without entropy =     -246.43340781  energy(sigma->0) =     -246.42703832


--------------------------------------------------------------------------------------------------------




----------------------------------------- Iteration    1(  15)  ---------------------------------------


    POTLOK:  cpu time    0.04: real time    0.04
    SETDIJ:  cpu time    0.01: real time    0.01
     EDDAV:  cpu time    0.70: real time    0.70
       DOS:  cpu time    0.00: real time    0.00
    CHARGE:  cpu time    0.03: real time    0.03
    MIXING:  cpu time    0.00: real time    0.00
    --------------------------------------------
      LOOP:  cpu time    0.78: real time    0.89

 eigenvalue-minimisations  :  1976
 total energy-change (2. order) : 0.9437285E+00  (-0.3231209E+00)
 number of electron     227.9999742 magnetization       0.3125378
 augmentation part       67.4131984 magnetization       0.9049548

 Broyden mixing:
  rms(total) = 0.12416E+01    rms(broyden)= 0.12397E+01
  rms(prec ) = 0.13931E+01
  weight for this iteration     100.00

 eigenvalues of (default mixing * dielectric matrix)
  average eigenvalue GAMMA=   0.4178
  1.0061  1.0061  0.5095  0.4255  0.4255  0.2219  0.2219  0.1009  0.1009  0.1601

 Free energy of the ion-electron system (eV)
  ---------------------------------------------------
  alpha Z        PSCENC =       610.67547827
  Ewald energy   TEWEN  =     63927.06616780
  -1/2 Hartree   DENC   =    -79431.79089179
  -exchange  EXHF       =         0.00000000
  -V(xc)+E(xc)   XCENC  =       552.52550481
  PAW double counting   =     12519.00006370   -12391.75161282
  entropy T*S    EENTRO =        -0.00858445
  eigenvalues    EBANDS =     -1408.03503809
  atomic energy  EATOM  =     15376.83878752
  ---------------------------------------------------
  free energy    TOTEN  =      -245.48012505 eV

  energy without entropy =     -245.47154060  energy(sigma->0) =     -245.47726357


--------------------------------------------------------------------------------------------------------




----------------------------------------- Iteration    1(  16)  ---------------------------------------


    POTLOK:  cpu time    0.04: real time    0.04
    SETDIJ:  cpu time    0.00: real time    0.01
     EDDAV:  cpu time    0.66: real time    0.66
       DOS:  cpu time    0.00: real time    0.00
    CHARGE:  cpu time    0.03: real time    0.03
    MIXING:  cpu time    0.00: real time    0.00
    --------------------------------------------
      LOOP:  cpu time    0.73: real time    0.83

 eigenvalue-minimisations  :  1824
 total energy-change (2. order) : 0.2143014E+00  (-0.1066251E+00)
 number of electron     227.9999734 magnetization       0.2921027
 augmentation part       67.6012629 magnetization       0.9962383

 Broyden mixing:
  rms(total) = 0.10368E+01    rms(broyden)= 0.10363E+01
  rms(prec ) = 0.11778E+01
  weight for this iteration     100.00

 eigenvalues of (default mixing * dielectric matrix)
  average eigenvalue GAMMA=   0.3965
  1.0165  1.0165  0.5122  0.4188  0.4188  0.1009  0.1009  0.2153  0.2153  0.1731
  0.1731

 Free energy of the ion-electron system (eV)
  ---------------------------------------------------
  alpha Z        PSCENC =       610.67547827
  Ewald energy   TEWEN  =     63927.06616780
  -1/2 Hartree   DENC   =    -79440.02789921
  -exchange  EXHF       =         0.00000000
  -V(xc)+E(xc)   XCENC  =       554.21511752
  PAW double counting   =     12561.67264620   -12433.79368646
  entropy T*S    EENTRO =        -0.00138656
  eigenvalues    EBANDS =     -1401.91104876
  atomic energy  EATOM  =     15376.83878752
  ---------------------------------------------------
  free energy    TOTEN  =      -245.26582368 eV

  energy without entropy =     -245.26443712  energy(sigma->0) =     -245.26536150


--------------------------------------------------------------------------------------------------------




----------------------------------------- Iteration    1(  17)  ---------------------------------------


    POTLOK:  cpu time    0.04: real time    0.04
    SETDIJ:  cpu time    0.01: real time    0.01
     EDDAV:  cpu time    0.65: real time    0.66
       DOS:  cpu time    0.00: real time    0.00
    CHARGE:  cpu time    0.03: real time    0.03
    MIXING:  cpu time    0.00: real time    0.00
    --------------------------------------------
      LOOP:  cpu time    0.73: real time    0.92

 eigenvalue-minimisations  :  1808
 total energy-change (2. order) : 0.1370309E-01  (-0.3145156E-01)
 number of electron     227.9999738 magnetization       0.2375486
 augmentation part       67.6186581 magnetization       1.0824724

 Broyden mixing:
  rms(total) = 0.10297E+01    rms(broyden)= 0.10295E+01
  rms(prec ) = 0.11225E+01
  weight for this iteration     100.00

 eigenvalues of (default mixing * dielectric matrix)
  average eigenvalue GAMMA=   0.4538
  1.0814  1.0814  0.5459  0.5459  0.5512  0.3866  0.3866  0.1009  0.1009  0.2286
  0.2286  0.2071

 Free energy of the ion-electron system (eV)
  ---------------------------------------------------
  alpha Z        PSCENC =       610.67547827
  Ewald energy   TEWEN  =     63927.06616780
  -1/2 Hartree   DENC   =    -79435.85353736
  -exchange  EXHF       =         0.00000000
  -V(xc)+E(xc)   XCENC  =       554.86856238
  PAW double counting   =     12571.25968465   -12443.40244389
  entropy T*S    EENTRO =        -0.00623322
  eigenvalues    EBANDS =     -1406.69858675
  atomic energy  EATOM  =     15376.83878752
  ---------------------------------------------------
  free energy    TOTEN  =      -245.25212060 eV

  energy without entropy =     -245.24588738  energy(sigma->0) =     -245.25004286


--------------------------------------------------------------------------------------------------------




----------------------------------------- Iteration    1(  18)  ---------------------------------------


    POTLOK:  cpu time    0.04: real time    0.04
    SETDIJ:  cpu time    0.01: real time    0.01
     EDDAV:  cpu time    0.64: real time    0.64
       DOS:  cpu time    0.00: real time    0.00
    CHARGE:  cpu time    0.03: real time    0.03
    MIXING:  cpu time    0.00: real time    0.00
    --------------------------------------------
      LOOP:  cpu time    0.72: real time    0.82

 eigenvalue-minimisations  :  1776
 total energy-change (2. order) : 0.6558258E-01  (-0.2792822E-01)
 number of electron     227.9999744 magnetization       0.0794157
 augmentation part       67.6114080 magnetization       1.0572732

 Broyden mixing:
  rms(total) = 0.92021E+00    rms(broyden)= 0.92005E+00
  rms(prec ) = 0.99851E+00
  weight for this iteration     100.00

 eigenvalues of (default mixing * dielectric matrix)
  average eigenvalue GAMMA=   0.5683
  1.5264  1.5264  0.8363  0.8363  0.4744  0.4744  0.4243  0.1009  0.1009  0.3274
  0.3274  0.2165  0.2165

 Free energy of the ion-electron system (eV)
  ---------------------------------------------------
  alpha Z        PSCENC =       610.67547827
  Ewald energy   TEWEN  =     63927.06616780
  -1/2 Hartree   DENC   =    -79440.16359377
  -exchange  EXHF       =         0.00000000
  -V(xc)+E(xc)   XCENC  =       555.48701281
  PAW double counting   =     12586.25331046   -12458.85992481
  entropy T*S    EENTRO =        -0.00602020
  eigenvalues    EBANDS =     -1402.47775612
  atomic energy  EATOM  =     15376.83878752
  ---------------------------------------------------
  free energy    TOTEN  =      -245.18653802 eV

  energy without entropy =     -245.18051782  energy(sigma->0) =     -245.18453129


--------------------------------------------------------------------------------------------------------




----------------------------------------- Iteration    1(  19)  ---------------------------------------


    POTLOK:  cpu time    0.04: real time    0.04
    SETDIJ:  cpu time    0.01: real time    0.01
     EDDAV:  cpu time    0.69: real time    0.69
       DOS:  cpu time    0.00: real time    0.00
    CHARGE:  cpu time    0.03: real time    0.03
    MIXING:  cpu time    0.00: real time    0.00
    --------------------------------------------
      LOOP:  cpu time    0.77: real time    0.85

 eigenvalue-minimisations  :  1928
 total energy-change (2. order) : 0.3177399E+00  (-0.1354548E+00)
 number of electron     227.9999728 magnetization      -0.0279891
 augmentation part       67.9434430 magnetization       0.9089685

 Broyden mixing:
  rms(total) = 0.56573E+00    rms(broyden)= 0.56522E+00
  rms(prec ) = 0.67229E+00
  weight for this iteration     100.00

 eigenvalues of (default mixing * dielectric matrix)
  average eigenvalue GAMMA=   0.5870
  1.4902  1.4902  1.0465  1.0465  0.4769  0.4769  0.4711  0.3987  0.3987  0.1009
  0.1009  0.2859  0.2172  0.2172

 Free energy of the ion-electron system (eV)
  ---------------------------------------------------
  alpha Z        PSCENC =       610.67547827
  Ewald energy   TEWEN  =     63927.06616780
  -1/2 Hartree   DENC   =    -79455.06313459
  -exchange  EXHF       =         0.00000000
  -V(xc)+E(xc)   XCENC  =       558.78915251
  PAW double counting   =     12674.62435906   -12546.89355047
  entropy T*S    EENTRO =         0.02507495
  eigenvalues    EBANDS =     -1390.93113316
  atomic energy  EATOM  =     15376.83878752
  ---------------------------------------------------
  free energy    TOTEN  =      -244.86879810 eV

  energy without entropy =     -244.89387306  energy(sigma->0) =     -244.87715642


--------------------------------------------------------------------------------------------------------




----------------------------------------- Iteration    1(  20)  ---------------------------------------


    POTLOK:  cpu time    0.04: real time    0.04
    SETDIJ:  cpu time    0.01: real time    0.01
     EDDAV:  cpu time    0.67: real time    0.67
       DOS:  cpu time    0.00: real time    0.00
    CHARGE:  cpu time    0.03: real time    0.03
    MIXING:  cpu time    0.00: real time    0.00
    --------------------------------------------
      LOOP:  cpu time    0.75: real time    0.84

 eigenvalue-minimisations  :  1872
 total energy-change (2. order) : 0.1713004E+00  (-0.9871609E-01)
 number of electron     227.9999726 magnetization      -0.0322302
 augmentation part       68.1813033 magnetization       0.8200384

 Broyden mixing:
  rms(total) = 0.41972E+00    rms(broyden)= 0.41937E+00
  rms(prec ) = 0.53105E+00
  weight for this iteration     100.00

 eigenvalues of (default mixing * dielectric matrix)
  average eigenvalue GAMMA=   0.5904
  1.4450  1.4450  1.1434  1.1434  0.5579  0.5579  0.4437  0.4437  0.3751  0.3751
  0.1009  0.1009  0.2908  0.2170  0.2170

 Free energy of the ion-electron system (eV)
  ---------------------------------------------------
  alpha Z        PSCENC =       610.67547827
  Ewald energy   TEWEN  =     63927.06616780
  -1/2 Hartree   DENC   =    -79461.61151973
  -exchange  EXHF       =         0.00000000
  -V(xc)+E(xc)   XCENC  =       561.27396880
  PAW double counting   =     12745.77533246   -12617.91857240
  entropy T*S    EENTRO =         0.01262154
  eigenvalues    EBANDS =     -1386.80976199
  atomic energy  EATOM  =     15376.83878752
  ---------------------------------------------------
  free energy    TOTEN  =      -244.69749773 eV

  energy without entropy =     -244.71011927  energy(sigma->0) =     -244.70170491


--------------------------------------------------------------------------------------------------------




----------------------------------------- Iteration    1(  21)  ---------------------------------------


    POTLOK:  cpu time    0.04: real time    0.04
    SETDIJ:  cpu time    0.01: real time    0.01
     EDDAV:  cpu time    0.65: real time    0.65
       DOS:  cpu time    0.00: real time    0.00
    CHARGE:  cpu time    0.03: real time    0.03
    MIXING:  cpu time    0.00: real time    0.00
    --------------------------------------------
      LOOP:  cpu time    0.72: real time    0.82

 eigenvalue-minimisations  :  1792
 total energy-change (2. order) :-0.1969242E+00  (-0.3425108E-01)
 number of electron     227.9999721 magnetization      -0.0634848
 augmentation part       68.2439566 magnetization       0.7658449

 Broyden mixing:
  rms(total) = 0.37334E+00    rms(broyden)= 0.37312E+00
  rms(prec ) = 0.43356E+00
  weight for this iteration     100.00

 eigenvalues of (default mixing * dielectric matrix)
  average eigenvalue GAMMA=   0.6085
  1.4878  1.4878  1.2024  1.2024  0.6580  0.6580  0.4554  0.4554  0.4246  0.3907
  0.3907  0.1009  0.1009  0.2864  0.2171  0.2171

 Free energy of the ion-electron system (eV)
  ---------------------------------------------------
  alpha Z        PSCENC =       610.67547827
  Ewald energy   TEWEN  =     63927.06616780
  -1/2 Hartree   DENC   =    -79458.98692718
  -exchange  EXHF       =         0.00000000
  -V(xc)+E(xc)   XCENC  =       561.76763907
  PAW double counting   =     12766.08153626   -12638.02301201
  entropy T*S    EENTRO =        -0.01529996
  eigenvalues    EBANDS =     -1390.29879166
  atomic energy  EATOM  =     15376.83878752
  ---------------------------------------------------
  free energy    TOTEN  =      -244.89442190 eV

  energy without entropy =     -244.87912194  energy(sigma->0) =     -244.88932191


--------------------------------------------------------------------------------------------------------




----------------------------------------- Iteration    1(  22)  ---------------------------------------


    POTLOK:  cpu time    0.04: real time    0.04
    SETDIJ:  cpu time    0.01: real time    0.01
     EDDAV:  cpu time    0.68: real time    0.68
       DOS:  cpu time    0.00: real time    0.00
    CHARGE:  cpu time    0.03: real time    0.03
    MIXING:  cpu time    0.00: real time    0.00
    --------------------------------------------
      LOOP:  cpu time    0.76: real time    0.85

 eigenvalue-minimisations  :  1904
 total energy-change (2. order) :-0.3579724E-01  (-0.1740564E-01)
 number of electron     227.9999722 magnetization      -0.1195005
 augmentation part       68.2468164 magnetization       0.7490779

 Broyden mixing:
  rms(total) = 0.32611E+00    rms(broyden)= 0.32603E+00
  rms(prec ) = 0.37917E+00
  weight for this iteration     100.00

 eigenvalues of (default mixing * dielectric matrix)
  average eigenvalue GAMMA=   0.6396
  1.4372  1.4372  1.4059  1.4059  0.7811  0.7811  0.4870  0.4870  0.4681  0.4681
  0.3951  0.3951  0.1009  0.1009  0.2884  0.2170  0.2170

 Free energy of the ion-electron system (eV)
  ---------------------------------------------------
  alpha Z        PSCENC =       610.67547827
  Ewald energy   TEWEN  =     63927.06616780
  -1/2 Hartree   DENC   =    -79460.42741350
  -exchange  EXHF       =         0.00000000
  -V(xc)+E(xc)   XCENC  =       561.95195492
  PAW double counting   =     12780.87443449   -12653.13474616
  entropy T*S    EENTRO =        -0.02434261
  eigenvalues    EBANDS =     -1388.75053986
  atomic energy  EATOM  =     15376.83878752
  ---------------------------------------------------
  free energy    TOTEN  =      -244.93021914 eV

  energy without entropy =     -244.90587653  energy(sigma->0) =     -244.92210494


--------------------------------------------------------------------------------------------------------




----------------------------------------- Iteration    1(  23)  ---------------------------------------


    POTLOK:  cpu time    0.04: real time    0.04
    SETDIJ:  cpu time    0.01: real time    0.01
     EDDAV:  cpu time    0.69: real time    0.69
       DOS:  cpu time    0.00: real time    0.00
    CHARGE:  cpu time    0.03: real time    0.03
    MIXING:  cpu time    0.00: real time    0.00
    --------------------------------------------
      LOOP:  cpu time    0.77: real time    0.97

 eigenvalue-minimisations  :  1936
 total energy-change (2. order) :-0.8005719E-01  (-0.1416084E-01)
 number of electron     227.9999719 magnetization      -0.1304436
 augmentation part       68.2813876 magnetization       0.7234264

 Broyden mixing:
  rms(total) = 0.33864E+00    rms(broyden)= 0.33822E+00
  rms(prec ) = 0.35671E+00
  weight for this iteration     100.00

 eigenvalues of (default mixing * dielectric matrix)
  average eigenvalue GAMMA=   0.6193
  1.4587  1.4587  1.3988  1.3988  0.8146  0.8146  0.4953  0.4953  0.4815  0.4815
  0.3897  0.3897  0.1009  0.1009  0.2884  0.2170  0.2170  0.1449

 Free energy of the ion-electron system (eV)
  ---------------------------------------------------
  alpha Z        PSCENC =       610.67547827
  Ewald energy   TEWEN  =     63927.06616780
  -1/2 Hartree   DENC   =    -79460.75841902
  -exchange  EXHF       =         0.00000000
  -V(xc)+E(xc)   XCENC  =       561.85693231
  PAW double counting   =     12798.91305509   -12671.78136348
  entropy T*S    EENTRO =        -0.03163610
  eigenvalues    EBANDS =     -1387.78927871
  atomic energy  EATOM  =     15376.83878752
  ---------------------------------------------------
  free energy    TOTEN  =      -245.01027633 eV

  energy without entropy =     -244.97864022  energy(sigma->0) =     -244.99973096


--------------------------------------------------------------------------------------------------------




----------------------------------------- Iteration    1(  24)  ---------------------------------------


    POTLOK:  cpu time    0.04: real time    0.04
    SETDIJ:  cpu time    0.01: real time    0.01
     EDDAV:  cpu time    0.50: real time    0.51
       DOS:  cpu time    0.00: real time    0.00
    CHARGE:  cpu time    0.03: real time    0.03
    MIXING:  cpu time    0.00: real time    0.00
    --------------------------------------------
      LOOP:  cpu time    0.58: real time    0.78

 eigenvalue-minimisations  :  1296
 total energy-change (2. order) : 0.3527629E-01  (-0.3860544E-02)
 number of electron     227.9999721 magnetization      -0.1647870
 augmentation part       68.2607286 magnetization       0.7146983

 Broyden mixing:
  rms(total) = 0.31054E+00    rms(broyden)= 0.31052E+00
  rms(prec ) = 0.32677E+00
  weight for this iteration     100.00

 eigenvalues of (default mixing * dielectric matrix)
  average eigenvalue GAMMA=   0.6068
  1.4680  1.4680  1.3971  1.3971  0.8281  0.8281  0.5128  0.5128  0.4620  0.4620
  0.3831  0.3831  0.1009  0.1009  0.2890  0.2170  0.2170  0.2513  0.2513

 Free energy of the ion-electron system (eV)
  ---------------------------------------------------
  alpha Z        PSCENC =       610.67547827
  Ewald energy   TEWEN  =     63927.06616780
  -1/2 Hartree   DENC   =    -79462.03437848
  -exchange  EXHF       =         0.00000000
  -V(xc)+E(xc)   XCENC  =       561.82026037
  PAW double counting   =     12799.21530063   -12672.18664708
  entropy T*S    EENTRO =        -0.02888662
  eigenvalues    EBANDS =     -1386.34108245
  atomic energy  EATOM  =     15376.83878752
  ---------------------------------------------------
  free energy    TOTEN  =      -244.97500004 eV

  energy without entropy =     -244.94611342  energy(sigma->0) =     -244.96537116


--------------------------------------------------------------------------------------------------------




----------------------------------------- Iteration    1(  25)  ---------------------------------------


    POTLOK:  cpu time    0.04: real time    0.04
    SETDIJ:  cpu time    0.01: real time    0.01
     EDDAV:  cpu time    0.67: real time    0.67
       DOS:  cpu time    0.00: real time    0.00
    CHARGE:  cpu time    0.03: real time    0.03
    MIXING:  cpu time    0.00: real time    0.00
    --------------------------------------------
      LOOP:  cpu time    0.74: real time    0.83

 eigenvalue-minimisations  :  1864
 total energy-change (2. order) : 0.2209827E-01  (-0.2600849E-02)
 number of electron     227.9999722 magnetization      -0.1948468
 augmentation part       68.2431907 magnetization       0.7182429

 Broyden mixing:
  rms(total) = 0.29984E+00    rms(broyden)= 0.29980E+00
  rms(prec ) = 0.31705E+00
  weight for this iteration     100.00

 eigenvalues of (default mixing * dielectric matrix)
  average eigenvalue GAMMA=   0.6343
  1.4991  1.4991  1.4254  1.4254  0.9030  0.9030  0.6385  0.6385  0.4676  0.4676
  0.4513  0.4513  0.4010  0.4010  0.1009  0.1009  0.2881  0.2170  0.2170  0.1897

 Free energy of the ion-electron system (eV)
  ---------------------------------------------------
  alpha Z        PSCENC =       610.67547827
  Ewald energy   TEWEN  =     63927.06616780
  -1/2 Hartree   DENC   =    -79461.97780517
  -exchange  EXHF       =         0.00000000
  -V(xc)+E(xc)   XCENC  =       561.70845519
  PAW double counting   =     12799.78335941   -12672.95335875
  entropy T*S    EENTRO =        -0.02387312
  eigenvalues    EBANDS =     -1386.07011292
  atomic energy  EATOM  =     15376.83878752
  ---------------------------------------------------
  free energy    TOTEN  =      -244.95290176 eV

  energy without entropy =     -244.92902864  energy(sigma->0) =     -244.94494406


--------------------------------------------------------------------------------------------------------




----------------------------------------- Iteration    1(  26)  ---------------------------------------


    POTLOK:  cpu time    0.04: real time    0.04
    SETDIJ:  cpu time    0.00: real time    0.01
     EDDAV:  cpu time    0.62: real time    0.62
       DOS:  cpu time    0.00: real time    0.00
    CHARGE:  cpu time    0.03: real time    0.03
    MIXING:  cpu time    0.00: real time    0.00
    --------------------------------------------
      LOOP:  cpu time    0.69: real time    0.78

 eigenvalue-minimisations  :  1616
 total energy-change (2. order) : 0.3947164E-01  (-0.1247897E-02)
 number of electron     227.9999722 magnetization      -0.2987472
 augmentation part       68.2361022 magnetization       0.6191336

 Broyden mixing:
  rms(total) = 0.28412E+00    rms(broyden)= 0.28410E+00
  rms(prec ) = 0.29905E+00
  weight for this iteration     100.00

 eigenvalues of (default mixing * dielectric matrix)
  average eigenvalue GAMMA=   0.7200
  2.1000  2.1000  1.4268  1.4268  1.1578  1.1578  0.7273  0.7273  0.5348  0.5348
  0.4765  0.4765  0.3957  0.3957  0.1009  0.1009  0.3561  0.2878  0.2170  0.2170
  0.2016

 Free energy of the ion-electron system (eV)
  ---------------------------------------------------
  alpha Z        PSCENC =       610.67547827
  Ewald energy   TEWEN  =     63927.06616780
  -1/2 Hartree   DENC   =    -79462.95374687
  -exchange  EXHF       =         0.00000000
  -V(xc)+E(xc)   XCENC  =       561.72757103
  PAW double counting   =     12801.00299994   -12674.23790921
  entropy T*S    EENTRO =        -0.01922047
  eigenvalues    EBANDS =     -1385.01355814
  atomic energy  EATOM  =     15376.83878752
  ---------------------------------------------------
  free energy    TOTEN  =      -244.91343013 eV

  energy without entropy =     -244.89420966  energy(sigma->0) =     -244.90702330


--------------------------------------------------------------------------------------------------------




----------------------------------------- Iteration    1(  27)  ---------------------------------------


    POTLOK:  cpu time    0.04: real time    0.04
    SETDIJ:  cpu time    0.01: real time    0.01
     EDDAV:  cpu time    0.67: real time    0.67
       DOS:  cpu time    0.00: real time    0.00
    CHARGE:  cpu time    0.03: real time    0.03
    MIXING:  cpu time    0.00: real time    0.00
    --------------------------------------------
      LOOP:  cpu time    0.74: real time    0.83

 eigenvalue-minimisations  :  1856
 total energy-change (2. order) : 0.7809012E-01  (-0.7833618E-02)
 number of electron     227.9999723 magnetization      -0.4093972
 augmentation part       68.2203455 magnetization       0.5041327

 Broyden mixing:
  rms(total) = 0.23262E+00    rms(broyden)= 0.23252E+00
  rms(prec ) = 0.24487E+00
  weight for this iteration     100.00

 eigenvalues of (default mixing * dielectric matrix)
  average eigenvalue GAMMA=   0.7333
  2.1181  2.1181  1.4936  1.4936  1.1857  1.1857  0.8061  0.8061  0.5950  0.5950
  0.4736  0.4736  0.1009  0.1009  0.4638  0.3998  0.3998  0.4007  0.2879  0.2170
  0.2170  0.1995

 Free energy of the ion-electron system (eV)
  ---------------------------------------------------
  alpha Z        PSCENC =       610.67547827
  Ewald energy   TEWEN  =     63927.06616780
  -1/2 Hartree   DENC   =    -79465.32776767
  -exchange  EXHF       =         0.00000000
  -V(xc)+E(xc)   XCENC  =       561.58654582
  PAW double counting   =     12804.64849151   -12678.14452380
  entropy T*S    EENTRO =        -0.01724217
  eigenvalues    EBANDS =     -1382.16127729
  atomic energy  EATOM  =     15376.83878752
  ---------------------------------------------------
  free energy    TOTEN  =      -244.83534001 eV

  energy without entropy =     -244.81809784  energy(sigma->0) =     -244.82959262


--------------------------------------------------------------------------------------------------------




----------------------------------------- Iteration    1(  28)  ---------------------------------------


    POTLOK:  cpu time    0.04: real time    0.04
    SETDIJ:  cpu time    0.01: real time    0.01
     EDDAV:  cpu time    0.66: real time    0.66
       DOS:  cpu time    0.00: real time    0.00
    CHARGE:  cpu time    0.03: real time    0.03
    MIXING:  cpu time    0.00: real time    0.00
    --------------------------------------------
      LOOP:  cpu time    0.74: real time    0.83

 eigenvalue-minimisations  :  1840
 total energy-change (2. order) :-0.1008464E+00  (-0.4760037E-02)
 number of electron     227.9999727 magnetization      -0.5196695
 augmentation part       68.1720746 magnetization       0.4320473

 Broyden mixing:
  rms(total) = 0.19372E+00    rms(broyden)= 0.19362E+00
  rms(prec ) = 0.20405E+00
  weight for this iteration     100.00

 eigenvalues of (default mixing * dielectric matrix)
  average eigenvalue GAMMA=   0.7330
  2.1010  2.1010  1.2256  1.2256  1.3478  1.3478  0.9475  0.9475  0.6598  0.6598
  0.5947  0.4724  0.4724  0.1009  0.1009  0.4006  0.4006  0.4153  0.4153  0.2878
  0.2170  0.2170  0.2000

 Free energy of the ion-electron system (eV)
  ---------------------------------------------------
  alpha Z        PSCENC =       610.67547827
  Ewald energy   TEWEN  =     63927.06616780
  -1/2 Hartree   DENC   =    -79466.42562758
  -exchange  EXHF       =         0.00000000
  -V(xc)+E(xc)   XCENC  =       561.39269046
  PAW double counting   =     12810.47128867   -12684.38970819
  entropy T*S    EENTRO =        -0.01402590
  eigenvalues    EBANDS =     -1380.55123749
  atomic energy  EATOM  =     15376.83878752
  ---------------------------------------------------
  free energy    TOTEN  =      -244.93618644 eV

  energy without entropy =     -244.92216053  energy(sigma->0) =     -244.93151114


--------------------------------------------------------------------------------------------------------




----------------------------------------- Iteration    1(  29)  ---------------------------------------


    POTLOK:  cpu time    0.04: real time    0.04
    SETDIJ:  cpu time    0.01: real time    0.01
     EDDAV:  cpu time    0.66: real time    0.66
       DOS:  cpu time    0.00: real time    0.00
    CHARGE:  cpu time    0.03: real time    0.03
    MIXING:  cpu time    0.00: real time    0.00
    --------------------------------------------
      LOOP:  cpu time    0.73: real time    0.81

 eigenvalue-minimisations  :  1808
 total energy-change (2. order) :-0.9207703E-01  (-0.4259076E-02)
 number of electron     227.9999728 magnetization      -0.6372462
 augmentation part       68.1643914 magnetization       0.3161112

 Broyden mixing:
  rms(total) = 0.16973E+00    rms(broyden)= 0.16968E+00
  rms(prec ) = 0.18364E+00
  weight for this iteration     100.00

 eigenvalues of (default mixing * dielectric matrix)
  average eigenvalue GAMMA=   0.7432
  2.0103  2.0103  1.4279  1.4279  1.2537  1.2537  1.0632  1.0632  0.7250  0.7250
  0.5896  0.5896  0.4738  0.4738  0.1009  0.1009  0.3990  0.3990  0.4139  0.4139
  0.2879  0.2170  0.2170  0.1998

 Free energy of the ion-electron system (eV)
  ---------------------------------------------------
  alpha Z        PSCENC =       610.67547827
  Ewald energy   TEWEN  =     63927.06616780
  -1/2 Hartree   DENC   =    -79468.23563457
  -exchange  EXHF       =         0.00000000
  -V(xc)+E(xc)   XCENC  =       561.21783887
  PAW double counting   =     12816.01601962   -12690.28158607
  entropy T*S    EENTRO =        -0.01357002
  eigenvalues    EBANDS =     -1378.31176488
  atomic energy  EATOM  =     15376.83878752
  ---------------------------------------------------
  free energy    TOTEN  =      -245.02826347 eV

  energy without entropy =     -245.01469345  energy(sigma->0) =     -245.02374013


--------------------------------------------------------------------------------------------------------




----------------------------------------- Iteration    1(  30)  ---------------------------------------


    POTLOK:  cpu time    0.04: real time    0.04
    SETDIJ:  cpu time    0.01: real time    0.01
     EDDAV:  cpu time    0.65: real time    0.65
       DOS:  cpu time    0.00: real time    0.00
    CHARGE:  cpu time    0.03: real time    0.03
    MIXING:  cpu time    0.00: real time    0.00
    --------------------------------------------
      LOOP:  cpu time    0.73: real time    0.81

 eigenvalue-minimisations  :  1800
 total energy-change (2. order) :-0.5558907E-01  (-0.4347424E-02)
 number of electron     227.9999731 magnetization      -0.8017543
 augmentation part       68.1430029 magnetization       0.1517613

 Broyden mixing:
  rms(total) = 0.14277E+00    rms(broyden)= 0.14266E+00
  rms(prec ) = 0.16250E+00
  weight for this iteration     100.00

 eigenvalues of (default mixing * dielectric matrix)
  average eigenvalue GAMMA=   0.7784
  2.2539  2.2539  1.4455  1.4455  1.3916  1.3916  1.1178  1.1178  0.7663  0.7663
  0.6296  0.6296  0.4732  0.4732  0.5816  0.1009  0.1009  0.3993  0.3993  0.4004
  0.4004  0.2878  0.2170  0.2170  0.1999

 Free energy of the ion-electron system (eV)
  ---------------------------------------------------
  alpha Z        PSCENC =       610.67547827
  Ewald energy   TEWEN  =     63927.06616780
  -1/2 Hartree   DENC   =    -79470.09491127
  -exchange  EXHF       =         0.00000000
[...]
     12     -17.3290      1.00000
     13     -17.3257      1.00000
     14     -17.2476      1.00000
     15     -17.2405      1.00000
     16     -17.1739      1.00000
     17     -17.1654      1.00000
     18     -17.1363      1.00000
     19     -17.1337      1.00000
     20     -16.8257      1.00000
     21     -16.7336      1.00000
     22     -16.5838      1.00000
     23     -16.5069      1.00000
     24     -16.4543      1.00000
     25      -6.7964      1.00000
     26      -6.5832      1.00000
     27      -6.4953      1.00000
     28      -6.4049      1.00000
     29      -6.2316      1.00000
     30      -5.9479      1.00000
     31      -5.9400      1.00000
     32      -5.8943      1.00000
     33      -5.8428      1.00000
     34      -5.8053      1.00000
     35      -5.7289      1.00000
     36      -5.6867      1.00000
     37      -5.6169      1.00000
     38      -5.6079      1.00000
     39      -5.4336      1.00000
     40      -5.3527      1.00000
     41      -5.3156      1.00000
     42      -5.2423      1.00000
     43      -5.1223      1.00000
     44      -5.1181      1.00000
     45      -4.9034      1.00000
     46      -4.8271      1.00000
     47      -4.7695      1.00000
     48      -4.7473      1.00000
     49      -4.7121      1.00000
     50      -4.6361      1.00000
     51      -4.6146      1.00000
     52      -4.5509      1.00000
     53      -4.5500      1.00000
     54      -4.4952      1.00000
     55      -4.4844      1.00000
     56      -4.4622      1.00000
     57      -4.4445      1.00000
     58      -4.4164      1.00000
     59      -4.3120      1.00000
     60      -4.2250      1.00000
     61      -4.2006      1.00000
     62      -4.1171      1.00000
     63      -4.1112      1.00000
     64      -4.0806      1.00000
     65      -3.8526      1.00000
     66      -3.8067      1.00000
     67      -3.7773      1.00000
     68      -3.6304      1.00000
     69      -3.5902      1.00000
     70      -3.5510      1.00000
     71      -3.5347      1.00000
     72      -3.5223      1.00000
     73      -3.4719      1.00000
     74      -3.4080      1.00000
     75      -3.3854      1.00000
     76      -3.3667      1.00000
     77      -3.3427      1.00000
     78      -3.3238      1.00000
     79      -3.2339      1.00000
     80      -3.1611      1.00000
     81      -3.0361      1.00000
     82      -2.8379      1.00000
     83      -2.7979      1.00000
     84      -2.7553      1.00000
     85      -2.6682      1.00000
     86      -2.6417      1.00000
     87      -2.6383      1.00000
     88      -2.5737      1.00000
     89      -2.5403      1.00000
     90      -2.4509      1.00000
     91      -2.3111      1.00000
     92      -1.8618      1.00000
     93      -1.8495      1.00000
     94      -1.7812      1.00000
     95      -1.5936      1.00000
     96      -1.5904      1.00000
     97      -1.4270      1.00000
     98      -1.3361      1.00000
     99      -1.2529      1.00000
    100      -1.2354      1.00000
    101      -1.1803      1.00000
    102      -1.1138      1.00000
    103      -1.1023      1.00000
    104      -1.0197      1.00000
    105      -0.9865      1.00000
    106      -0.8791      1.00000
    107      -0.7412      1.00000
    108      -0.7284      1.00000
    109      -0.6124      1.00000
    110      -0.5948      1.00000
    111      -0.2525      1.00112
    112      -0.2318      1.00176
    113      -0.2089      1.00282
    114      -0.0642      1.02466
    115      -0.0116      1.03462
    116       0.2610      0.44902
    117       1.1061     -0.00000
    118       1.7930     -0.00000
    119       1.8675     -0.00000
    120       2.0363     -0.00000
    121       2.0379     -0.00000
    122       2.0380     -0.00000
    123       2.0538     -0.00000
    124       2.1095     -0.00000
    125       2.3762     -0.00000
    126       2.5478     -0.00000
    127       2.6949     -0.00000
    128       2.7989     -0.00000
    129       2.8290     -0.00000
    130       2.9572     -0.00000
    131       2.9928     -0.00000
    132       3.0202     -0.00000
    133       3.0719     -0.00000
    134       3.1380     -0.00000
    135       3.1611     -0.00000
    136       3.2380     -0.00000


--------------------------------------------------------------------------------------------------------


 soft charge-density along one line, spin component           1
         0         1         2         3         4         5         6         7         8         9
 total charge-density along one line
 
 soft charge-density along one line, spin component           2
         0         1         2         3         4         5         6         7         8         9
 total charge-density along one line
 
 pseudopotential strength for first ion, spin component:           1
 24.300   0.017   0.000  -0.039  -0.000   0.000  -0.007   0.000
  0.017   0.024   0.000  -0.001  -0.000   0.000  -0.000   0.000
  0.000   0.000  -6.115   0.000  -0.000   0.017   0.000  -0.000
 -0.039  -0.001   0.000  -6.283   0.000   0.000  -0.004   0.000
 -0.000  -0.000  -0.000   0.000  -6.202  -0.000   0.000   0.007
  0.000   0.000   0.017   0.000  -0.000   0.202   0.000  -0.000
 -0.007  -0.000   0.000  -0.004   0.000   0.000   0.199   0.000
  0.000   0.000  -0.000   0.000   0.007  -0.000   0.000   0.201
 pseudopotential strength for first ion, spin component:           2
 24.316   0.017   0.000  -0.043   0.000   0.000  -0.008   0.000
  0.017   0.024   0.000  -0.001   0.000   0.000  -0.000   0.000
  0.000   0.000  -5.996  -0.000  -0.000   0.036  -0.000  -0.000
 -0.043  -0.001  -0.000  -6.424  -0.000  -0.000  -0.027  -0.000
  0.000   0.000  -0.000  -0.000  -6.298  -0.000  -0.000  -0.009
  0.000   0.000   0.036  -0.000  -0.000   0.205  -0.000  -0.000
 -0.008  -0.000  -0.000  -0.027  -0.000  -0.000   0.196  -0.000
  0.000   0.000  -0.000  -0.000  -0.009  -0.000  -0.000   0.198
 total augmentation occupancy for first ion, spin component:           1
  1.827   0.558   0.000  -0.011   0.000   0.000  -0.020   0.000
  0.558   0.498   0.000   0.081   0.000   0.000  -0.085   0.000
  0.000   0.000   1.858   0.000   0.000  -0.590   0.000   0.000
 -0.011   0.081   0.000   1.658   0.000   0.000  -1.075   0.000
  0.000   0.000   0.000   0.000   1.720   0.000   0.000  -0.918
  0.000   0.000  -0.590   0.000   0.000   0.357   0.000   0.000
 -0.020  -0.085   0.000  -1.075   0.000   0.000   0.824   0.000
  0.000   0.000   0.000   0.000  -0.918   0.000   0.000   0.633
 total augmentation occupancy for first ion, spin component:           2
  0.007  -0.032   0.000  -0.006   0.000   0.000   0.001   0.000
 -0.032   0.119   0.000   0.019   0.000   0.000  -0.011   0.000
  0.000   0.000   0.118   0.000   0.000   0.069   0.000   0.000
 -0.006   0.019   0.000  -0.122   0.000   0.000  -0.015   0.000
  0.000   0.000   0.000   0.000  -0.078   0.000   0.000  -0.010
  0.000   0.000   0.069   0.000   0.000  -0.001   0.000   0.000
  0.001  -0.011   0.000  -0.015   0.000   0.000   0.101   0.000
  0.000   0.000   0.000   0.000  -0.010   0.000   0.000   0.066


------------------------ aborting loop because EDIFF is reached ----------------------------------------


    CHARGE:  cpu time    0.03: real time    0.03
    FORLOC:  cpu time    0.00: real time    0.00
    FORNL :  cpu time    0.20: real time    0.20
    STRESS:  cpu time    0.21: real time    0.21
    FORCOR:  cpu time    0.03: real time    0.03
    FORHAR:  cpu time    0.00: real time    0.00
    MIXING:  cpu time    0.00: real time    0.00

  FORCE on cell =-STRESS in cart. coord.  units (eV):
  Direction    XX          YY          ZZ          XY          YZ          ZX
  --------------------------------------------------------------------------------------
  Alpha Z   610.67548   610.67548   610.67548
  Ewald   68487.27031 67024.35766-76762.01059     0.00000     0.00000     0.00000
  Hartree 72363.54932 71714.60999-69843.15405    -0.00000    -0.00000    -0.00000
  E(xc)   -1121.47740 -1120.70232 -1121.44581     0.00000     0.00000    -0.00000
  Local  ************************142256.01450     0.00000    -0.00000     0.00000
  n-local   262.38304   259.63984   250.91302     0.00001    -0.00000     0.00000
  augment  1385.27112  1410.11452  1409.56658    -0.00000     0.00000     0.00000
  Kinetic  3120.22007  3205.64768  3211.17734    -0.00000    -0.00000    -0.00000
  Fock        0.00000     0.00000     0.00000     0.00000     0.00000     0.00000
  -------------------------------------------------------------------------------------
  Total      23.29759    21.13693    11.73648     0.00000     0.00000     0.00000
  in kB      72.36486    65.65360    36.45477     0.00000     0.00000     0.00000
  external pressure =       58.16 kB  Pullay stress =        0.00 kB


 VOLUME and BASIS-vectors are now :
 -----------------------------------------------------------------------------
  energy-cutoff  :      367.69
  volume of cell :      515.81
      direct lattice vectors                 reciprocal lattice vectors
     2.870000000  0.000000000  0.000000000     0.348432056  0.000000000  0.000000000
     0.000000000  6.250820000  0.000000000     0.000000000  0.159979011  0.000000000
     0.000000000  0.000000000 28.752460000     0.000000000  0.000000000  0.034779633

  length of vectors
     2.870000000  6.250820000 28.752460000     0.348432056  0.159979011  0.034779633


 FORCES acting on ions
    electron-ion (+dipol)            ewald-force                    non-local-force                 convergence-correction
 -----------------------------------------------------------------------------------------------
   -.649E-14 -.273E-12 0.890E+03   -.197E-13 -.790E-14 -.895E+03   0.341E-22 -.301E-22 0.584E+01   -.270E-13 0.132E-12 -.154E+00
   0.195E-14 -.216E-12 -.689E+03   0.183E-14 -.179E-13 0.682E+03   0.215E-22 0.148E-22 0.711E+01   -.223E-13 -.194E-13 -.802E-01
   0.671E-14 0.873E-12 -.215E+04   -.751E-14 -.309E-14 0.217E+04   0.249E-23 0.539E-24 -.270E+02   0.559E-14 -.900E-13 0.947E-01
   0.216E-12 0.800E+02 0.195E+04   0.250E-13 -.874E+02 -.196E+04   0.448E-22 0.741E+01 0.133E+02   -.108E-13 -.153E-01 0.684E-01
   0.210E-12 -.800E+02 0.195E+04   -.345E-13 0.874E+02 -.196E+04   -.396E-22 -.741E+01 0.133E+02   0.389E-14 0.153E-01 0.684E-01
   0.213E-12 0.320E+02 0.561E+03   0.525E-13 -.389E+02 -.560E+03   -.964E-23 0.645E+01 -.114E+00   -.269E-13 -.102E-01 -.181E+00
   0.213E-12 -.320E+02 0.561E+03   -.239E-13 0.389E+02 -.560E+03   0.513E-23 -.645E+01 -.114E+00   -.233E-13 0.102E-01 -.181E+00
   0.201E-12 0.372E+02 -.104E+04   0.483E-13 -.438E+02 0.104E+04   0.845E-23 0.613E+01 0.216E+00   -.980E-14 -.776E-02 -.283E-01
   0.204E-12 -.372E+02 -.104E+04   -.497E-13 0.438E+02 0.104E+04   0.192E-23 -.613E+01 0.216E+00   0.104E-13 0.776E-02 -.283E-01
   0.249E-14 0.800E-12 0.169E+04   -.469E-14 0.590E-14 -.168E+04   -.498E-22 0.232E-21 -.686E+01   -.719E-14 -.118E-12 -.200E-01
   -.988E-14 0.164E-12 0.211E+03   -.130E-13 0.105E-13 -.204E+03   0.913E-22 -.314E-22 -.618E+01   0.185E-13 0.239E-12 -.190E+00
   0.446E-14 0.418E-12 -.139E+04   -.973E-14 0.934E-14 0.139E+04   0.361E-23 -.311E-22 -.810E+01   0.639E-14 0.140E-13 0.163E-01
   0.378E-14 -.182E-13 0.167E+04   0.256E-13 -.164E-13 -.169E+04   -.229E-22 -.300E-21 0.156E+02   -.268E-13 -.413E-14 -.300E-01
   -.141E-13 0.277E-12 0.112E+03   0.459E-14 -.101E-13 -.119E+03   -.346E-23 -.464E-23 0.631E+01   -.753E-14 -.216E-12 -.182E+00
   -.112E-13 -.246E-12 -.149E+04   0.116E-13 -.120E-13 0.148E+04   0.221E-22 -.308E-22 0.418E+01   0.424E-14 -.127E-12 0.432E-01
   0.212E-12 0.467E+02 0.131E+04   -.318E-14 -.542E+02 -.131E+04   -.967E-24 0.750E+01 0.727E-01   -.122E-13 0.106E-01 -.927E-01
   0.202E-12 -.467E+02 0.131E+04   0.356E-13 0.542E+02 -.131E+04   -.104E-23 -.750E+01 0.727E-01   -.192E-13 -.106E-01 -.927E-01
   0.210E-12 0.375E+02 -.238E+03   0.488E-13 -.443E+02 0.238E+03   0.240E-23 0.631E+01 -.335E-01   -.949E-15 0.961E-02 -.149E+00
   0.229E-12 -.375E+02 -.238E+03   -.185E-13 0.443E+02 0.238E+03   -.132E-22 -.631E+01 -.335E-01   -.503E-14 -.961E-02 -.149E+00
   0.207E-12 0.431E+02 -.184E+04   0.510E-13 -.511E+02 0.184E+04   -.734E-23 0.775E+01 -.276E+00   0.358E-14 -.284E-02 0.609E-01
   0.220E-12 -.431E+02 -.184E+04   -.296E-13 0.511E+02 0.184E+04   -.191E-22 -.775E+01 -.276E+00   0.350E-14 0.284E-02 0.609E-01
   -.178E-13 0.418E-12 0.985E+03   0.121E-13 -.601E-14 -.977E+03   -.129E-22 0.161E-23 -.738E+01   0.585E-14 -.112E-12 -.136E+00
   -.118E-15 0.728E-13 -.588E+03   0.102E-13 0.419E-14 0.595E+03   0.506E-22 0.242E-22 -.650E+01   -.116E-13 -.614E-13 -.101E+00
   0.107E-13 0.646E-12 -.220E+04   0.625E-14 0.261E-14 0.224E+04   0.141E-24 0.122E-22 -.334E+02   0.165E-13 0.497E-13 0.856E-01
   -.143E-13 0.898E-13 0.151E+04   -.366E-13 0.368E-14 -.151E+04   0.231E-22 0.629E-24 -.632E+00   -.130E-13 -.932E-13 -.118E+00
   -.155E-14 0.374E-13 -.278E+03   -.202E-13 0.250E-13 0.278E+03   -.276E-22 -.102E-23 -.183E-01   -.190E-13 0.103E-13 -.174E+00
   -.195E-14 -.574E-12 -.213E+04   -.181E-13 0.253E-13 0.213E+04   0.339E-22 0.799E-23 0.118E+01   -.209E-13 0.721E-13 0.687E-01
   0.118E-12 -.101E-12 0.225E+04   -.168E-13 -.298E-13 -.225E+04   0.108E-21 -.316E-22 -.363E+01   0.703E-16 -.158E-12 0.460E-01
   0.118E-12 -.178E-12 0.649E+03   0.713E-14 0.141E-14 -.649E+03   0.474E-22 0.167E-22 -.205E+00   -.121E-13 0.365E-12 -.205E+00
   0.111E-12 -.290E-12 -.121E+04   0.359E-14 -.228E-14 0.121E+04   0.500E-22 0.493E-23 0.459E-01   -.229E-14 -.133E-12 -.344E-01
   -.569E-14 0.316E-12 0.219E+04   0.210E-13 0.314E-13 -.219E+04   -.568E-24 -.156E-23 -.465E+00   -.192E-13 0.150E-12 0.622E-01
   -.127E-13 0.452E-12 0.666E+03   -.167E-13 0.269E-13 -.666E+03   0.311E-22 -.364E-23 -.589E+00   0.916E-14 -.220E-12 -.215E+00
   0.119E-14 -.113E-12 -.121E+04   -.182E-13 0.258E-13 0.121E+04   0.880E-23 -.679E-23 0.352E-01   -.181E-13 0.574E-13 -.317E-01
   0.107E-12 0.217E-12 0.156E+04   -.117E-13 -.269E-13 -.156E+04   -.981E-23 0.164E-23 0.273E-01   0.190E-13 -.537E-13 -.940E-01
   0.117E-12 -.668E-13 -.278E+03   0.144E-13 0.137E-14 0.278E+03   0.124E-22 -.310E-22 0.365E-02   -.774E-15 -.189E-12 -.172E+00
   0.131E-12 0.171E-12 -.215E+04   0.952E-14 0.827E-15 0.215E+04   0.602E-23 0.297E-22 -.213E+00   -.609E-14 -.839E-13 0.738E-01
 -----------------------------------------------------------------------------------------------
   0.318E-11 0.491E-11 0.366E+02   0.367E-13 0.124E-13 0.227E-11   0.391E-21 -.888E-15 -.345E+02   -.215E-12 -.586E-12 -.209E+01
 
 
 POSITION                                       TOTAL-FORCE (eV/Angst)
 -----------------------------------------------------------------------------------
      0.00000      3.12541     10.00572         0.000000     -0.000000     -0.002115
      0.00000      3.12541     16.28136         0.000000      0.000000     -0.050153
      0.00000      3.12541     22.53217         0.000000     -0.000000     -0.691453
      1.43500      4.98002      4.26400         0.000000      0.020080     -0.002835
      1.43500      1.27080      4.26400        -0.000000     -0.020080     -0.002835
      1.43500      5.03053     11.25082        -0.000000     -0.425002     -0.075033
      1.43500      1.22029     11.25082        -0.000000      0.425002     -0.075033
      1.43500      5.03053     17.50164        -0.000000     -0.482747     -0.037432
      1.43500      1.22029     17.50164        -0.000000      0.482747     -0.037432
      0.00000      3.12541      6.15302         0.000000      0.000000     -0.053262
      0.00000      3.12541     12.47110         0.000000     -0.000000      0.189974
      0.00000      3.12541     18.72193         0.000000     -0.000000     -0.056422
     -0.00000     -0.00000      6.69886         0.000000     -0.000000     -0.009173
      0.00000      0.00000     13.15594         0.000000      0.000000     -0.242398
      0.00000      0.00000     19.40677         0.000000      0.000000     -0.687874
      1.43500      1.89766      8.04299         0.000000      0.026210      0.006802
      1.43500      4.35316      8.04299        -0.000000     -0.026210      0.006802
      1.43500      1.90512     14.37623         0.000000     -0.501165     -0.006275
      1.43500      4.34570     14.37623         0.000000      0.501165     -0.006275
      1.43500      1.90512     20.62705        -0.000000     -0.232915      0.053037
      1.43500      4.34570     20.62705         0.000000      0.232915      0.053037
      0.00000     -0.00000      9.26122         0.000000     -0.000000     -0.007936
      0.00000      0.00000     15.59652         0.000000     -0.000000      0.159697
      0.00000      0.00000     21.84734         0.000000      0.000000     -0.007227
      0.00000      3.12541      8.10201         0.000000     -0.000000     -0.006765
      0.00000      3.12541     14.37623        -0.000000     -0.000000     -0.054679
      0.00000      3.12541     20.62705         0.000000      0.000000      1.625446
      1.43500      3.12541      4.98837         0.000000      0.000000     -0.024871
      1.43500      3.12541     11.25082         0.000000      0.000000     -0.426334
      1.43500      3.12541     17.50164         0.000000     -0.000000     -0.013398
      0.00000     -0.00000      4.52888         0.000000     -0.000000      0.030675
      0.00000      0.00000     11.25082         0.000000      0.000000     -0.892309
      0.00000      0.00000     17.50164         0.000000     -0.000000      0.295869
      1.43500     -0.00000      7.96639        -0.000000     -0.000000      0.021215
      1.43500      0.00000     14.37623        -0.000000      0.000000      0.080997
      1.43500      0.00000     20.62705        -0.000000     -0.000000      0.945967
 -----------------------------------------------------------------------------------
    total drift:                                0.000000      0.000000     -0.004785


--------------------------------------------------------------------------------------------------------



  FREE ENERGIE OF THE ION-ELECTRON SYSTEM (eV)
  ---------------------------------------------------
  free  energy   TOTEN  =      -246.93870857 eV

  energy  without entropy=     -246.91404534  energy(sigma->0) =     -246.93048750
 
 d Force = 0.1756429E-05[-0.661E-06, 0.417E-05]  d Energy = 0.7512666E-04-0.734E-04
 d Force = 0.4047621E+00[ 0.405E+00, 0.405E+00]  d Ewald  = 0.4047621E+00 0.873E-09


--------------------------------------------------------------------------------------------------------


    POTLOK:  cpu time    0.04: real time    0.04


--------------------------------------------------------------------------------------------------------




--------------------------------------------------------------------------------------------------------


  
 reached required accuracy - stopping structural energy minimisation
     LOOP+:  cpu time    1.86: real time    2.96
    4ORBIT:  cpu time    0.00: real time    0.00

 total amount of memory used by VASP on root node    35314. kBytes
========================================================================

   base      :      30000. kBytes
   nonl-proj :       1179. kBytes
   fftplans  :        772. kBytes
   grid      :       2025. kBytes
   one-center:        155. kBytes
   wavefun   :       1183. kBytes
 
  
  
 General timing and accounting informations for this job:
 ========================================================
  
                  Total CPU time used (sec):      240.055
                            User time (sec):      238.955
                          System time (sec):        1.100
                         Elapsed time (sec):      293.895
  
                   Maximum memory used (kb):       86032.
                   Average memory used (kb):           0.
  
                          Minor page faults:        32486
                          Major page faults:            6
                 Voluntary context switches:        16858
