 vasp.5.3.3 18Dez12 (build May 12 2016 12:04:25) complex                        
  
 executed on             LinuxIFC date 2019.05.18  10:53:10
 running on   32 total cores
 distrk:  each k-point on   32 cores,    1 groups
 distr:  one band on NCORES_PER_BAND=   4 cores,    8 groups


--------------------------------------------------------------------------------------------------------


 INCAR:
 POTCAR:    PAW_PBE O 08Apr2002                   
 POTCAR:    PAW_PBE Mn 06Sep2000                  
 POTCAR:    PAW_PBE O 08Apr2002                   
  local pseudopotential read in
  partial core-charges read in
  partial kinetic energy density read in
  kinetic energy density of atom read in
  atomic valenz-charges read in
  non local Contribution for L=           0  read in
    real space projection operators read in
  non local Contribution for L=           0  read in
    real space projection operators read in
  non local Contribution for L=           1  read in
    real space projection operators read in
  non local Contribution for L=           1  read in
    real space projection operators read in
    PAW grid and wavefunctions read in
 
   number of l-projection  operators is LMAX  =           4
   number of lm-projection operators is LMMAX =           8
 
 POTCAR:    PAW_PBE Mn 06Sep2000                  
  local pseudopotential read in
  partial core-charges read in
  partial kinetic energy density read in
  atomic valenz-charges read in
  non local Contribution for L=           2  read in
    real space projection operators read in
  non local Contribution for L=           2  read in
    real space projection operators read in
  non local Contribution for L=           0  read in
    real space projection operators read in
  non local Contribution for L=           0  read in
    real space projection operators read in
  non local Contribution for L=           1  read in
    real space projection operators read in
  non local Contribution for L=           1  read in
    real space projection operators read in
    PAW grid and wavefunctions read in
 
   number of l-projection  operators is LMAX  =           6
   number of lm-projection operators is LMMAX =          18
 

 ----------------------------------------------------------------------------- 
|                                                                             |
|  ADVICE TO THIS USER RUNNING 'VASP/VAMP'   (HEAR YOUR MASTER'S VOICE ...):  |
|                                                                             |
|      You enforced a specific xc-type in the INCAR file,                     |
|      a different type was found on the POTCAR file                          |
|          I HOPE YOU KNOW, WHAT YOU ARE  DOING                               |
|                                                                             |
 ----------------------------------------------------------------------------- 

  PAW_PBE O 08Apr2002                   :
 energy of atom  1       EATOM= -432.3788
 kinetic energy error for atom=    0.0208 (will be added to EATOM!!)
  PAW_PBE Mn 06Sep2000                  :
 energy of atom  2       EATOM= -416.7541
 kinetic energy error for atom=    0.0024 (will be added to EATOM!!)
 
 
 POSCAR: (Mn O2)2  (P4_2/mnm) ~  (Pearson #311740
  positions in direct lattice
  velocities in cartesian coordinates
 exchange correlation table for  LEXCH =       14
   RHO(1)=    0.500       N(1)  =     2000
   RHO(2)=  100.500       N(2)  =     4000
 


--------------------------------------------------------------------------------------------------------


 ion  position               nearest neighbor table
   1  0.305  0.305  0.000-   6 1.89   6 1.89   5 1.90
   2  0.805  0.195  0.500-   5 1.89   5 1.89   6 1.90
   3  0.195  0.805  0.500-   5 1.89   5 1.89   6 1.90
   4  0.695  0.695  0.000-   6 1.89   6 1.89   5 1.90
   5  0.000  0.000  0.000-   2 1.89   3 1.89   2 1.89   3 1.89   1 1.90   4 1.90
   6  0.500  0.500  0.500-   1 1.89   4 1.89   1 1.89   4 1.89   3 1.90   2 1.90
 
  LATTYP: Found a simple tetragonal cell.
 ALAT       =     4.3922967031
 C/A-ratio  =     0.6600940027
  
  Lattice vectors:
  
 A1 = (   4.3922967031,   0.0000000000,   0.0000000000)
 A2 = (   0.0000000000,   4.3922967031,   0.0000000000)
 A3 = (   0.0000000000,   0.0000000000,   2.8993287118)


Analysis of symmetry for initial positions (statically):
=====================================================================
 Subroutine PRICEL returns:
 Original cell was already a primitive cell.
 

 Routine SETGRP: Setting up the symmetry group for a 
 simple tetragonal supercell.


 Subroutine GETGRP returns: Found 16 space group operations
 (whereof  8 operations were pure point group operations)
 out of a pool of 16 trial point group operations.


The static configuration has the point symmetry D_2h.
 The point group associated with its full space group is D_4h.


Analysis of symmetry for dynamics (positions and initial velocities):
=====================================================================
 Subroutine PRICEL returns:
 Original cell was already a primitive cell.
 

 Routine SETGRP: Setting up the symmetry group for a 
 simple tetragonal supercell.


 Subroutine GETGRP returns: Found 16 space group operations
 (whereof  8 operations were pure point group operations)
 out of a pool of 16 trial point group operations.


The dynamic configuration has the point symmetry D_2h.
 The point group associated with its full space group is D_4h.


Analysis of magnetic symmetry:
=====================================================================

 Subroutine MAGSYM returns: Found 16 space group operations
 (whereof  8 operations were pure point group operations)
 out of a pool of 16 trial space group operations
 (whereof  8 operations were pure point group operations)
 and found also     1 'primitive' translations


The magnetic configuration has the point symmetry D_2h.
 The point group associated with its full space group is D_4h.


 irot  :   1
 --------------------------------------------------------------------
 isymop:   1   0   0
           0   1   0
           0   0   1

 gtrans:     0.0000000     0.0000000     0.0000000

 ptrans:     0.0000000     0.0000000     0.0000000
 rotmap:
 (   1->   1)  (   2->   2)  (   3->   3)  (   4->   4)  (   5->   5) 
 (   6->   6) 


 irot  :   2
 --------------------------------------------------------------------
 isymop:  -1   0   0
           0  -1   0
           0   0  -1

 gtrans:     0.0000000     0.0000000     0.0000000

 ptrans:     0.0000000     0.0000000     0.0000000
 rotmap:
 (   1->   4)  (   2->   3)  (   3->   2)  (   4->   1)  (   5->   5) 
 (   6->   6) 


 irot  :   3
 --------------------------------------------------------------------
 isymop:  -1   0   0
           0  -1   0
           0   0   1

 gtrans:     0.0000000     0.0000000     0.0000000

 ptrans:     0.0000000     0.0000000     0.0000000
 rotmap:
 (   1->   4)  (   2->   3)  (   3->   2)  (   4->   1)  (   5->   5) 
 (   6->   6) 


 irot  :   4
 --------------------------------------------------------------------
 isymop:   1   0   0
           0   1   0
           0   0  -1

 gtrans:     0.0000000     0.0000000     0.0000000

 ptrans:     0.0000000     0.0000000     0.0000000
 rotmap:
 (   1->   1)  (   2->   2)  (   3->   3)  (   4->   4)  (   5->   5) 
 (   6->   6) 


 irot  :   5
 --------------------------------------------------------------------
 isymop:   0   1   0
           1   0   0
           0   0  -1

 gtrans:     0.0000000     0.0000000     0.0000000

 ptrans:     0.0000000     0.0000000     0.0000000
 rotmap:
 (   1->   1)  (   2->   3)  (   3->   2)  (   4->   4)  (   5->   5) 
 (   6->   6) 


 irot  :   6
 --------------------------------------------------------------------
 isymop:   0  -1   0
          -1   0   0
           0   0   1

 gtrans:     0.0000000     0.0000000     0.0000000

 ptrans:     0.0000000     0.0000000     0.0000000
 rotmap:
 (   1->   4)  (   2->   2)  (   3->   3)  (   4->   1)  (   5->   5) 
 (   6->   6) 


 irot  :   7
 --------------------------------------------------------------------
 isymop:   0  -1   0
          -1   0   0
           0   0  -1

 gtrans:     0.0000000     0.0000000     0.0000000

 ptrans:     0.0000000     0.0000000     0.0000000
 rotmap:
 (   1->   4)  (   2->   2)  (   3->   3)  (   4->   1)  (   5->   5) 
 (   6->   6) 


 irot  :   8
 --------------------------------------------------------------------
 isymop:   0   1   0
           1   0   0
           0   0   1

 gtrans:     0.0000000     0.0000000     0.0000000

 ptrans:     0.0000000     0.0000000     0.0000000
 rotmap:
 (   1->   1)  (   2->   3)  (   3->   2)  (   4->   4)  (   5->   5) 
 (   6->   6) 


 irot  :   9
 --------------------------------------------------------------------
 isymop:   0  -1   0
           1   0   0
           0   0   1

 gtrans:     0.5000000     0.5000000     0.5000000

 ptrans:     0.0000000     0.0000000     0.0000000
 rotmap:
 (   1->   3)  (   2->   1)  (   3->   4)  (   4->   2)  (   5->   6) 
 (   6->   5) 


 irot  :  10
 --------------------------------------------------------------------
 isymop:   0   1   0
          -1   0   0
           0   0  -1

 gtrans:     0.5000000     0.5000000     0.5000000

 ptrans:     0.0000000     0.0000000     0.0000000
 rotmap:
 (   1->   2)  (   2->   4)  (   3->   1)  (   4->   3)  (   5->   6) 
 (   6->   5) 


 irot  :  11
 --------------------------------------------------------------------
 isymop:   0   1   0
          -1   0   0
           0   0   1

 gtrans:     0.5000000     0.5000000     0.5000000

 ptrans:     0.0000000     0.0000000     0.0000000
 rotmap:
 (   1->   2)  (   2->   4)  (   3->   1)  (   4->   3)  (   5->   6) 
 (   6->   5) 


 irot  :  12
 --------------------------------------------------------------------
 isymop:   0  -1   0
           1   0   0
           0   0  -1

 gtrans:     0.5000000     0.5000000     0.5000000

 ptrans:     0.0000000     0.0000000     0.0000000
 rotmap:
 (   1->   3)  (   2->   1)  (   3->   4)  (   4->   2)  (   5->   6) 
 (   6->   5) 


 irot  :  13
 --------------------------------------------------------------------
 isymop:  -1   0   0
           0   1   0
           0   0  -1

 gtrans:     0.5000000     0.5000000     0.5000000

 ptrans:     0.0000000     0.0000000     0.0000000
 rotmap:
 (   1->   3)  (   2->   4)  (   3->   1)  (   4->   2)  (   5->   6) 
 (   6->   5) 


 irot  :  14
 --------------------------------------------------------------------
 isymop:   1   0   0
           0  -1   0
           0   0   1

 gtrans:     0.5000000     0.5000000     0.5000000

 ptrans:     0.0000000     0.0000000     0.0000000
 rotmap:
 (   1->   2)  (   2->   1)  (   3->   4)  (   4->   3)  (   5->   6) 
 (   6->   5) 


 irot  :  15
 --------------------------------------------------------------------
 isymop:   1   0   0
           0  -1   0
           0   0  -1

 gtrans:     0.5000000     0.5000000     0.5000000

 ptrans:     0.0000000     0.0000000     0.0000000
 rotmap:
 (   1->   2)  (   2->   1)  (   3->   4)  (   4->   3)  (   5->   6) 
 (   6->   5) 


 irot  :  16
 --------------------------------------------------------------------
 isymop:  -1   0   0
           0   1   0
           0   0   1

 gtrans:     0.5000000     0.5000000     0.5000000

 ptrans:     0.0000000     0.0000000     0.0000000
 rotmap:
 (   1->   3)  (   2->   4)  (   3->   1)  (   4->   2)  (   5->   6) 
 (   6->   5) 
 
 
 KPOINTS: Automatic mesh                          

Automatic generation of k-mesh.
Space group operators:
 irot       det(A)        alpha          n_x          n_y          n_z        tau_x        tau_y        tau_z
    1     1.000000     0.000001     1.000000     0.000000     0.000000     0.000000     0.000000     0.000000
    2    -1.000000     0.000001     1.000000     0.000000     0.000000     0.000000     0.000000     0.000000
    3     1.000000   179.999999     0.000000     0.000000     1.000000     0.000000     0.000000     0.000000
    4    -1.000000   179.999999     0.000000     0.000000     1.000000     0.000000     0.000000     0.000000
    5     1.000000   180.000000     0.707107     0.707107     0.000000     0.000000     0.000000     0.000000
    6    -1.000000   180.000000     0.707107     0.707107     0.000000     0.000000     0.000000     0.000000
    7     1.000000   180.000000     0.707107    -0.707107     0.000000     0.000000     0.000000     0.000000
    8    -1.000000   180.000000     0.707107    -0.707107     0.000000     0.000000     0.000000     0.000000
    9     1.000000    90.000000     0.000000     0.000000    -1.000000     0.500000     0.500000     0.500000
   10    -1.000000    90.000000     0.000000     0.000000    -1.000000     0.500000     0.500000     0.500000
   11     1.000000    90.000000     0.000000     0.000000     1.000000     0.500000     0.500000     0.500000
   12    -1.000000    90.000000     0.000000     0.000000     1.000000     0.500000     0.500000     0.500000
   13     1.000000   180.000000     0.000000     1.000000     0.000000     0.500000     0.500000     0.500000
   14    -1.000000   180.000000     0.000000     1.000000     0.000000     0.500000     0.500000     0.500000
   15     1.000000   180.000000     1.000000     0.000000     0.000000     0.500000     0.500000     0.500000
   16    -1.000000   180.000000     1.000000     0.000000     0.000000     0.500000     0.500000     0.500000
 
 Subroutine IBZKPT returns following result:
 ===========================================
 
 Found     50 irreducible k-points:
 
 Following reciprocal coordinates:
            Coordinates               Weight
  0.000000  0.000000  0.000000      1.000000
  0.166667  0.000000  0.000000      4.000000
  0.333333  0.000000  0.000000      4.000000
  0.500000  0.000000  0.000000      2.000000
  0.166667  0.166667  0.000000      4.000000
  0.333333  0.166667  0.000000      8.000000
  0.500000  0.166667  0.000000      4.000000
  0.333333  0.333333  0.000000      4.000000
  0.500000  0.333333  0.000000      4.000000
  0.500000  0.500000  0.000000      1.000000
  0.000000  0.000000  0.111111      2.000000
  0.166667  0.000000  0.111111      8.000000
  0.333333  0.000000  0.111111      8.000000
  0.500000  0.000000  0.111111      4.000000
  0.166667  0.166667  0.111111      8.000000
  0.333333  0.166667  0.111111     16.000000
  0.500000  0.166667  0.111111      8.000000
  0.333333  0.333333  0.111111      8.000000
  0.500000  0.333333  0.111111      8.000000
  0.500000  0.500000  0.111111      2.000000
  0.000000  0.000000  0.222222      2.000000
  0.166667  0.000000  0.222222      8.000000
  0.333333  0.000000  0.222222      8.000000
  0.500000  0.000000  0.222222      4.000000
  0.166667  0.166667  0.222222      8.000000
  0.333333  0.166667  0.222222     16.000000
  0.500000  0.166667  0.222222      8.000000
  0.333333  0.333333  0.222222      8.000000
  0.500000  0.333333  0.222222      8.000000
  0.500000  0.500000  0.222222      2.000000
  0.000000  0.000000  0.333333      2.000000
  0.166667  0.000000  0.333333      8.000000
  0.333333  0.000000  0.333333      8.000000
  0.500000  0.000000  0.333333      4.000000
  0.166667  0.166667  0.333333      8.000000
  0.333333  0.166667  0.333333     16.000000
  0.500000  0.166667  0.333333      8.000000
  0.333333  0.333333  0.333333      8.000000
  0.500000  0.333333  0.333333      8.000000
  0.500000  0.500000  0.333333      2.000000
  0.000000  0.000000  0.444444      2.000000
  0.166667  0.000000  0.444444      8.000000
  0.333333  0.000000  0.444444      8.000000
  0.500000  0.000000  0.444444      4.000000
  0.166667  0.166667  0.444444      8.000000
  0.333333  0.166667  0.444444     16.000000
  0.500000  0.166667  0.444444      8.000000
  0.333333  0.333333  0.444444      8.000000
  0.500000  0.333333  0.444444      8.000000
  0.500000  0.500000  0.444444      2.000000
 
 Following cartesian coordinates:
            Coordinates               Weight
  0.000000  0.000000  0.000000      1.000000
  0.037945  0.000000  0.000000      4.000000
  0.075890  0.000000  0.000000      4.000000
  0.113836  0.000000  0.000000      2.000000
  0.037945  0.037945  0.000000      4.000000
  0.075890  0.037945  0.000000      8.000000
  0.113836  0.037945  0.000000      4.000000
  0.075890  0.075890  0.000000      4.000000
  0.113836  0.075890  0.000000      4.000000
  0.113836  0.113836  0.000000      1.000000
  0.000000  0.000000  0.038323      2.000000
  0.037945  0.000000  0.038323      8.000000
  0.075890  0.000000  0.038323      8.000000
  0.113836  0.000000  0.038323      4.000000
  0.037945  0.037945  0.038323      8.000000
  0.075890  0.037945  0.038323     16.000000
  0.113836  0.037945  0.038323      8.000000
  0.075890  0.075890  0.038323      8.000000
  0.113836  0.075890  0.038323      8.000000
  0.113836  0.113836  0.038323      2.000000
  0.000000  0.000000  0.076646      2.000000
  0.037945  0.000000  0.076646      8.000000
  0.075890  0.000000  0.076646      8.000000
  0.113836  0.000000  0.076646      4.000000
  0.037945  0.037945  0.076646      8.000000
  0.075890  0.037945  0.076646     16.000000
  0.113836  0.037945  0.076646      8.000000
  0.075890  0.075890  0.076646      8.000000
  0.113836  0.075890  0.076646      8.000000
  0.113836  0.113836  0.076646      2.000000
  0.000000  0.000000  0.114969      2.000000
  0.037945  0.000000  0.114969      8.000000
  0.075890  0.000000  0.114969      8.000000
  0.113836  0.000000  0.114969      4.000000
  0.037945  0.037945  0.114969      8.000000
  0.075890  0.037945  0.114969     16.000000
  0.113836  0.037945  0.114969      8.000000
  0.075890  0.075890  0.114969      8.000000
  0.113836  0.075890  0.114969      8.000000
  0.113836  0.113836  0.114969      2.000000
  0.000000  0.000000  0.153292      2.000000
  0.037945  0.000000  0.153292      8.000000
  0.075890  0.000000  0.153292      8.000000
  0.113836  0.000000  0.153292      4.000000
  0.037945  0.037945  0.153292      8.000000
  0.075890  0.037945  0.153292     16.000000
  0.113836  0.037945  0.153292      8.000000
  0.075890  0.075890  0.153292      8.000000
  0.113836  0.075890  0.153292      8.000000
  0.113836  0.113836  0.153292      2.000000
 


--------------------------------------------------------------------------------------------------------




 Dimension of arrays:
   k-points           NKPTS =     50   k-points in BZ     NKDIM =     50   number of bands    NBANDS=     24
   number of dos      NEDOS =    301   number of ions     NIONS =      6
   non local maximal  LDIM  =      6   non local SUM 2l+1 LMDIM =     18
   total plane-waves  NPLWV =  12544
   max r-space proj   IRMAX =      1   max aug-charges    IRDMAX=   8444
   dimension x,y,z NGX =    28 NGY =   28 NGZ =   16
   dimension x,y,z NGXF=    56 NGYF=   56 NGZF=   32
   support grid    NGXF=    56 NGYF=   56 NGZF=   32
   ions per type =               4   2
 NGX,Y,Z   is equivalent  to a cutoff of  10.60, 10.60,  9.17 a.u.
 NGXF,Y,Z  is equivalent  to a cutoff of  21.20, 21.20, 18.35 a.u.


 I would recommend the setting:
   dimension x,y,z NGX =    25 NGY =   25 NGZ =   16
 SYSTEM =  (Mn O2)2  (P4_2/mnm) ~  (Pearson        
 POSCAR =  (Mn O2)2  (P4_2/mnm) ~  (Pearson #311740

 Startparameter for this run:
   NWRITE =      1    write-flag & timer
   PREC   = normal    normal or accurate (medium, high low for compatibility)
   ISTART =      0    job   : 0-new  1-cont  2-samecut
   ICHARG =      2    charge: 1-file 2-atom 10-const
   ISPIN  =      2    spin polarized calculation?
   LNONCOLLINEAR =      F non collinear calculations
   LSORBIT =      F    spin-orbit coupling
   INIWAV =      1    electr: 0-lowe 1-rand  2-diag
   LASPH  =      F    aspherical Exc in radial PAW
   METAGGA=      F    non-selfconsistent MetaGGA calc.

 Electronic Relaxation 1
   ENCUT  =  520.0 eV  38.22 Ry    6.18 a.u.   8.17  8.17  5.39*2*pi/ulx,y,z
   ENINI  =  520.0     initial cutoff
   ENAUG  =  605.4 eV  augmentation charge cutoff
   NELM   =     60;   NELMIN=  2; NELMDL= -5     # of ELM steps 
   EDIFF  = 0.1E-03   stopping-criterion for ELM
   LREAL  =      F    real-space projection
   NLSPLINE    = F    spline interpolate recip. space projectors
   LCOMPAT=      F    compatible to vasp.4.4
   GGA_COMPAT  = T    GGA compatible to vasp.4.4-vasp.4.6
   LMAXPAW     = -100 max onsite density
   LMAXMIX     =    4 max onsite mixed and CHGCAR
   VOSKOWN=      1    Vosko Wilk Nusair interpolation
   ROPT   =    0.00000   0.00000
 Ionic relaxation
   EDIFFG = 0.1E-02   stopping-criterion for IOM
   NSW    =    100    number of steps for IOM
   NBLOCK =      1;   KBLOCK =    100    inner block; outer block 
   IBRION =      2    ionic relax: 0-MD 1-quasi-New 2-CG
   NFREE  =      1    steps in history (QN), initial steepest desc. (CG)
   ISIF   =      3    stress and relaxation
   IWAVPR =     11    prediction:  0-non 1-charg 2-wave 3-comb
   ISYM   =      2    0-nonsym 1-usesym 2-fastsym
   LCORR  =      T    Harris-Foulkes like correction to forces

   POTIM  = 0.5000    time-step for ionic-motion
   TEIN   =    0.0    initial temperature
   TEBEG  =    0.0;   TEEND  =   0.0 temperature during run
   SMASS  =  -3.00    Nose mass-parameter (am)
   estimated Nose-frequenzy (Omega)   =  0.10E-29 period in steps =****** mass=  -0.441E-27a.u.
   SCALEE = 1.0000    scale energy and forces
   NPACO  =    256;   APACO  = 16.0  distance and # of slots for P.C.
   PSTRESS=    0.0 pullay stress

  Mass of Ions in am
   POMASS =  16.00 54.94
  Ionic Valenz
   ZVAL   =   6.00  7.00
  Atomic Wigner-Seitz radii
   RWIGS  =  -1.00 -1.00
  virtual crystal weights 
   VCA    =   1.00  1.00
   NELECT =      38.0000    total number of electrons
   NUPDOWN=      -1.0000    fix difference up-down

 DOS related values:
   EMIN   =  10.00;   EMAX   =-10.00  energy-range for DOS
   EFERMI =   0.00
   ISMEAR =     1;   SIGMA  =   0.20  broadening in eV -4-tet -1-fermi 0-gaus

 Electronic relaxation 2 (details)
   IALGO  =     38    algorithm
   LDIAG  =      T    sub-space diagonalisation (order eigenvalues)
   LSUBROT=      T    optimize rotation matrix (better conditioning)
   TURBO    =      0    0=normal 1=particle mesh
   IRESTART =      0    0=no restart 2=restart with 2 vectors
   NREBOOT  =      0    no. of reboots
   NMIN     =      0    reboot dimension
   EREF     =   0.00    reference energy to select bands
   IMIX   =      4    mixing-type and parameters
     AMIX     =   0.40;   BMIX     =  1.00
     AMIX_MAG =   1.60;   BMIX_MAG =  1.00
     AMIN     =   0.10
     WC   =   100.;   INIMIX=   1;  MIXPRE=   1;  MAXMIX= -45

 Intra band minimization:
   WEIMIN = 0.0010     energy-eigenvalue tresh-hold
   EBREAK =  0.10E-05  absolut break condition
   DEPER  =   0.30     relativ break condition  

   TIME   =   0.40     timestep for ELM

  volume/ion in A,a.u.               =       9.32        62.91
  Fermi-wavevector in a.u.,A,eV,Ry     =   1.439160  2.719618 28.180138  2.071182
  Thomas-Fermi vector in A             =   2.558047
 
 Write flags
   LWAVE  =      F    write WAVECAR
   LCHARG =      T    write CHGCAR
   LVTOT  =      F    write LOCPOT, total local potential
   LVHAR  =      F    write LOCPOT, Hartree potential only
   LELF   =      F    write electronic localiz. function (ELF)
   LORBIT =      0    0 simple, 1 ext, 2 COOP (PROOUT)


 Dipole corrections
   LMONO  =      F    monopole corrections only (constant potential shift)
   LDIPOL =      F    correct potential (dipole corrections)
   IDIPOL =      0    1-x, 2-y, 3-z, 4-all directions 
   EPSILON=  1.0000000 bulk dielectric constant

 LDA+U is selected, type is set to LDAUTYPE =  2
   angular momentum for each species LDAUL =    -1    2
   U (eV)           for each species LDAUU =   0.0  3.9
   J (eV)           for each species LDAUJ =   0.0  0.0
 Exchange correlation treatment:
   GGA     =    PS    GGA type
   LEXCH   =    14    internal setting for exchange type
   VOSKOWN=      1    Vosko Wilk Nusair interpolation
   LHFCALC =     F    Hartree Fock is set to
   LHFONE  =     F    Hartree Fock one center treatment
   AEXX    =    0.0000 exact exchange contribution

 Linear response parameters
   LEPSILON=     F    determine dielectric tensor
   LRPA    =     F    only Hartree local field effects (RPA)
   LNABLA  =     F    use nabla operator in PAW spheres
   LVEL    =     F    velocity operator in full k-point grid
   LINTERFAST=   F  fast interpolation
   KINTER  =     0    interpolate to denser k-point grid
   CSHIFT  =0.1000    complex shift for real part using Kramers Kronig
   OMEGAMAX=  -1.0    maximum frequency
   DEG_THRESHOLD= 0.2000000E-02 threshold for treating states as degnerate
   RTIME   =    0.100 relaxation time in fs

 Orbital magnetization related:
   ORBITALMAG=     F  switch on orbital magnetization
   LCHIMAG   =     F  perturbation theory with respect to B field
   DQ        =  0.001000  dq finite difference perturbation B field



--------------------------------------------------------------------------------------------------------


 conjugate gradient relaxation of ions
 charge density and potential will be updated during run
 spin polarized calculation
 Variant of blocked Davidson
 Davidson routine will perform the subspace rotation
 perform sub-space diagonalisation
    after iterative eigenvector-optimisation
 modified Broyden-mixing scheme, WC =      100.0
 initial mixing is a Kerker type mixing with AMIX =  0.4000 and BMIX =      1.0000
 Hartree-type preconditioning will be used
 using additional bands            5
 reciprocal scheme for non local part
 use partial core corrections
 calculate Harris-corrections to forces 
   (improved forces if not selfconsistent)
 use gradient corrections 
 use of overlap-Matrix (Vanderbilt PP)
 Methfessel and Paxton  Order N= 1 SIGMA  =   0.20


--------------------------------------------------------------------------------------------------------


  energy-cutoff  :      520.00
  volume of cell :       55.93
      direct lattice vectors                 reciprocal lattice vectors
     4.392296703  0.000000000  0.000000000     0.227671323  0.000000000  0.000000000
     0.000000000  4.392296703  0.000000000     0.000000000  0.227671323  0.000000000
     0.000000000  0.000000000  2.899328712     0.000000000  0.000000000  0.344907425

  length of vectors
     4.392296703  4.392296703  2.899328712     0.227671323  0.227671323  0.344907425


 
 k-points in units of 2pi/SCALE and weight: Automatic mesh                          
   0.00000000  0.00000000  0.00000000       0.003
   0.03794522  0.00000000  0.00000000       0.012
   0.07589044  0.00000000  0.00000000       0.012
   0.11383566  0.00000000  0.00000000       0.006
   0.03794522  0.03794522  0.00000000       0.012
   0.07589044  0.03794522  0.00000000       0.025
   0.11383566  0.03794522  0.00000000       0.012
   0.07589044  0.07589044  0.00000000       0.012
   0.11383566  0.07589044  0.00000000       0.012
   0.11383566  0.11383566  0.00000000       0.003
   0.00000000  0.00000000  0.03832305       0.006
   0.03794522  0.00000000  0.03832305       0.025
   0.07589044  0.00000000  0.03832305       0.025
   0.11383566  0.00000000  0.03832305       0.012
   0.03794522  0.03794522  0.03832305       0.025
   0.07589044  0.03794522  0.03832305       0.049
   0.11383566  0.03794522  0.03832305       0.025
   0.07589044  0.07589044  0.03832305       0.025
   0.11383566  0.07589044  0.03832305       0.025
   0.11383566  0.11383566  0.03832305       0.006
   0.00000000  0.00000000  0.07664609       0.006
   0.03794522  0.00000000  0.07664609       0.025
   0.07589044  0.00000000  0.07664609       0.025
   0.11383566  0.00000000  0.07664609       0.012
   0.03794522  0.03794522  0.07664609       0.025
   0.07589044  0.03794522  0.07664609       0.049
   0.11383566  0.03794522  0.07664609       0.025
   0.07589044  0.07589044  0.07664609       0.025
   0.11383566  0.07589044  0.07664609       0.025
   0.11383566  0.11383566  0.07664609       0.006
   0.00000000  0.00000000  0.11496914       0.006
   0.03794522  0.00000000  0.11496914       0.025
   0.07589044  0.00000000  0.11496914       0.025
   0.11383566  0.00000000  0.11496914       0.012
   0.03794522  0.03794522  0.11496914       0.025
   0.07589044  0.03794522  0.11496914       0.049
   0.11383566  0.03794522  0.11496914       0.025
   0.07589044  0.07589044  0.11496914       0.025
   0.11383566  0.07589044  0.11496914       0.025
   0.11383566  0.11383566  0.11496914       0.006
   0.00000000  0.00000000  0.15329219       0.006
   0.03794522  0.00000000  0.15329219       0.025
   0.07589044  0.00000000  0.15329219       0.025
   0.11383566  0.00000000  0.15329219       0.012
   0.03794522  0.03794522  0.15329219       0.025
   0.07589044  0.03794522  0.15329219       0.049
   0.11383566  0.03794522  0.15329219       0.025
   0.07589044  0.07589044  0.15329219       0.025
   0.11383566  0.07589044  0.15329219       0.025
   0.11383566  0.11383566  0.15329219       0.006
 
 k-points in reciprocal lattice and weights: Automatic mesh                          
   0.00000000  0.00000000  0.00000000       0.003
   0.16666667  0.00000000  0.00000000       0.012
   0.33333333  0.00000000  0.00000000       0.012
   0.50000000  0.00000000  0.00000000       0.006
   0.16666667  0.16666667  0.00000000       0.012
   0.33333333  0.16666667  0.00000000       0.025
   0.50000000  0.16666667  0.00000000       0.012
   0.33333333  0.33333333  0.00000000       0.012
   0.50000000  0.33333333  0.00000000       0.012
   0.50000000  0.50000000  0.00000000       0.003
   0.00000000  0.00000000  0.11111111       0.006
   0.16666667  0.00000000  0.11111111       0.025
   0.33333333  0.00000000  0.11111111       0.025
   0.50000000  0.00000000  0.11111111       0.012
   0.16666667  0.16666667  0.11111111       0.025
   0.33333333  0.16666667  0.11111111       0.049
   0.50000000  0.16666667  0.11111111       0.025
   0.33333333  0.33333333  0.11111111       0.025
   0.50000000  0.33333333  0.11111111       0.025
   0.50000000  0.50000000  0.11111111       0.006
   0.00000000  0.00000000  0.22222222       0.006
   0.16666667  0.00000000  0.22222222       0.025
   0.33333333  0.00000000  0.22222222       0.025
   0.50000000  0.00000000  0.22222222       0.012
   0.16666667  0.16666667  0.22222222       0.025
   0.33333333  0.16666667  0.22222222       0.049
   0.50000000  0.16666667  0.22222222       0.025
   0.33333333  0.33333333  0.22222222       0.025
   0.50000000  0.33333333  0.22222222       0.025
   0.50000000  0.50000000  0.22222222       0.006
   0.00000000  0.00000000  0.33333333       0.006
   0.16666667  0.00000000  0.33333333       0.025
   0.33333333  0.00000000  0.33333333       0.025
   0.50000000  0.00000000  0.33333333       0.012
   0.16666667  0.16666667  0.33333333       0.025
   0.33333333  0.16666667  0.33333333       0.049
   0.50000000  0.16666667  0.33333333       0.025
   0.33333333  0.33333333  0.33333333       0.025
   0.50000000  0.33333333  0.33333333       0.025
   0.50000000  0.50000000  0.33333333       0.006
   0.00000000  0.00000000  0.44444444       0.006
   0.16666667  0.00000000  0.44444444       0.025
   0.33333333  0.00000000  0.44444444       0.025
   0.50000000  0.00000000  0.44444444       0.012
   0.16666667  0.16666667  0.44444444       0.025
   0.33333333  0.16666667  0.44444444       0.049
   0.50000000  0.16666667  0.44444444       0.025
   0.33333333  0.33333333  0.44444444       0.025
   0.50000000  0.33333333  0.44444444       0.025
   0.50000000  0.50000000  0.44444444       0.006
 
 position of ions in fractional coordinates (direct lattice) 
   0.30549131  0.30549131  0.00000000
   0.80549131  0.19450869  0.50000000
   0.19450869  0.80549131  0.50000000
   0.69450869  0.69450869  0.00000000
   0.00000000  0.00000000  0.00000000
   0.50000000  0.50000000  0.50000000
 
 position of ions in cartesian coordinates  (Angst):
   1.34180846  1.34180846  0.00000000
   3.53795682  0.85433989  1.44966436
   0.85433989  3.53795682  1.44966436
   3.05048824  3.05048824  0.00000000
   0.00000000  0.00000000  0.00000000
   2.19614835  2.19614835  1.44966436
 


--------------------------------------------------------------------------------------------------------


 k-point  1 :   0.0000 0.0000 0.0000  plane waves:    1503
 k-point  2 :   0.1667 0.0000 0.0000  plane waves:    1513
 k-point  3 :   0.3333 0.0000 0.0000  plane waves:    1504
 k-point  4 :   0.5000 0.0000 0.0000  plane waves:    1512
 k-point  5 :   0.1667 0.1667 0.0000  plane waves:    1503
 k-point  6 :   0.3333 0.1667 0.0000  plane waves:    1517
 k-point  7 :   0.5000 0.1667 0.0000  plane waves:    1508
 k-point  8 :   0.3333 0.3333 0.0000  plane waves:    1516
 k-point  9 :   0.5000 0.3333 0.0000  plane waves:    1510
 k-point 10 :   0.5000 0.5000 0.0000  plane waves:    1520
 k-point 11 :   0.0000 0.0000 0.1111  plane waves:    1491
 k-point 12 :   0.1667 0.0000 0.1111  plane waves:    1509
 k-point 13 :   0.3333 0.0000 0.1111  plane waves:    1513
 k-point 14 :   0.5000 0.0000 0.1111  plane waves:    1514
 k-point 15 :   0.1667 0.1667 0.1111  plane waves:    1514
 k-point 16 :   0.3333 0.1667 0.1111  plane waves:    1508
 k-point 17 :   0.5000 0.1667 0.1111  plane waves:    1508
 k-point 18 :   0.3333 0.3333 0.1111  plane waves:    1505
 k-point 19 :   0.5000 0.3333 0.1111  plane waves:    1512
 k-point 20 :   0.5000 0.5000 0.1111  plane waves:    1512
 k-point 21 :   0.0000 0.0000 0.2222  plane waves:    1503
 k-point 22 :   0.1667 0.0000 0.2222  plane waves:    1505
 k-point 23 :   0.3333 0.0000 0.2222  plane waves:    1500
 k-point 24 :   0.5000 0.0000 0.2222  plane waves:    1504
 k-point 25 :   0.1667 0.1667 0.2222  plane waves:    1505
 k-point 26 :   0.3333 0.1667 0.2222  plane waves:    1504
 k-point 27 :   0.5000 0.1667 0.2222  plane waves:    1504
 k-point 28 :   0.3333 0.3333 0.2222  plane waves:    1517
 k-point 29 :   0.5000 0.3333 0.2222  plane waves:    1520
 k-point 30 :   0.5000 0.5000 0.2222  plane waves:    1528
 k-point 31 :   0.0000 0.0000 0.3333  plane waves:    1511
 k-point 32 :   0.1667 0.0000 0.3333  plane waves:    1500
 k-point 33 :   0.3333 0.0000 0.3333  plane waves:    1500
 k-point 34 :   0.5000 0.0000 0.3333  plane waves:    1500
 k-point 35 :   0.1667 0.1667 0.3333  plane waves:    1498
 k-point 36 :   0.3333 0.1667 0.3333  plane waves:    1504
 k-point 37 :   0.5000 0.1667 0.3333  plane waves:    1504
 k-point 38 :   0.3333 0.3333 0.3333  plane waves:    1510
 k-point 39 :   0.5000 0.3333 0.3333  plane waves:    1510
 k-point 40 :   0.5000 0.5000 0.3333  plane waves:    1500
 k-point 41 :   0.0000 0.0000 0.4444  plane waves:    1514
 k-point 42 :   0.1667 0.0000 0.4444  plane waves:    1506
 k-point 43 :   0.3333 0.0000 0.4444  plane waves:    1496
 k-point 44 :   0.5000 0.0000 0.4444  plane waves:    1506
 k-point 45 :   0.1667 0.1667 0.4444  plane waves:    1503
 k-point 46 :   0.3333 0.1667 0.4444  plane waves:    1490
 k-point 47 :   0.5000 0.1667 0.4444  plane waves:    1498
 k-point 48 :   0.3333 0.3333 0.4444  plane waves:    1506
 k-point 49 :   0.5000 0.3333 0.4444  plane waves:    1504
 k-point 50 :   0.5000 0.5000 0.4444  plane waves:    1496

 maximum and minimum number of plane-waves per node :       390      364

 maximum number of plane-waves:      1528
 maximum index in each direction: 
   IXMAX=    8   IYMAX=    8   IZMAX=    5
   IXMIN=   -8   IYMIN=   -8   IZMIN=   -5

 WARNING: aliasing errors must be expected set NGX to  34 to avoid them
 WARNING: aliasing errors must be expected set NGY to  34 to avoid them
 WARNING: aliasing errors must be expected set NGZ to  22 to avoid them
 aliasing errors are usually negligible using standard VASP settings
 and one can safely disregard these warnings

 parallel 3D FFT for wavefunctions:
    minimum data exchange during FFTs selected (reduces bandwidth)
 parallel 3D FFT for charge:
    minimum data exchange during FFTs selected (reduces bandwidth)


 total amount of memory used by VASP on root node    38409. kBytes
========================================================================

   base      :      30000. kBytes
   nonl-proj :       5566. kBytes
   fftplans  :        227. kBytes
   grid      :        558. kBytes
   one-center:         62. kBytes
   wavefun   :       1996. kBytes
 
 Broyden mixing: mesh for mixing (old mesh)
   NGX = 17   NGY = 17   NGZ = 11
  (NGX  = 56   NGY  = 56   NGZ  = 32)
  gives a total of   3179 points

 initial charge density was supplied:
 charge density of overlapping atoms calculated
 number of electron      38.0000000 magnetization       0.0000000
 keeping initial charge density in first step


--------------------------------------------------------------------------------------------------------


 Maximum index for augmentation-charges          465 (set IRDMAX)


--------------------------------------------------------------------------------------------------------


 First call to EWALD:  gamma=   0.463
 Maximum number of real-space cells 2x 2x 3
 Maximum number of reciprocal cells 3x 3x 2

 FEWALD executed in parallel
    FEWALD:  cpu time    0.00: real time    0.00


----------------------------------------- Iteration    1(   1)  ---------------------------------------


    POTLOK:  cpu time    0.01: real time    0.01
    SETDIJ:  cpu time    0.00: real time    0.01
     EDDAV:  cpu time    0.71: real time    0.71
       DOS:  cpu time    0.00: real time    0.00
    --------------------------------------------
      LOOP:  cpu time    0.73: real time    0.78

 eigenvalue-minimisations  :  4848
 total energy-change (2. order) : 0.4632012E+03  (-0.1869238E+04)
 number of electron      38.0000000 magnetization      -0.0000000
 augmentation part       38.0000000 magnetization      -0.0000000

 Free energy of the ion-electron system (eV)
  ---------------------------------------------------
  alpha Z        PSCENC =       170.09358264
  Ewald energy   TEWEN  =     -2223.73708239
  -1/2 Hartree   DENC   =      -550.14984903
  -exchange  EXHF       =         0.00000000
  -V(xc)+E(xc)   XCENC  =        93.24643219
  PAW double counting   =      2192.87916522    -2155.40356056
  entropy T*S    EENTRO =         0.00232056
  eigenvalues    EBANDS =       380.98495017
  atomic energy  EATOM  =      2555.28521479
  ---------------------------------------------------
  free energy    TOTEN  =       463.20117361 eV

  energy without entropy =      463.19885304  energy(sigma->0) =      463.20040008


--------------------------------------------------------------------------------------------------------




----------------------------------------- Iteration    1(   2)  ---------------------------------------


     EDDAV:  cpu time    0.70: real time    0.70
       DOS:  cpu time    0.00: real time    0.00
    --------------------------------------------
      LOOP:  cpu time    0.70: real time    0.78

 eigenvalue-minimisations  :  4832
 total energy-change (2. order) :-0.4268000E+03  (-0.4167401E+03)
 number of electron      38.0000000 magnetization      -0.0000000
 augmentation part       38.0000000 magnetization      -0.0000000

 Free energy of the ion-electron system (eV)
  ---------------------------------------------------
  alpha Z        PSCENC =       170.09358264
  Ewald energy   TEWEN  =     -2223.73708239
  -1/2 Hartree   DENC   =      -550.14984903
  -exchange  EXHF       =         0.00000000
  -V(xc)+E(xc)   XCENC  =        93.24643219
  PAW double counting   =      2192.87916522    -2155.40356056
  entropy T*S    EENTRO =        -0.00025781
  eigenvalues    EBANDS =       -45.81245301
  atomic energy  EATOM  =      2555.28521479
  ---------------------------------------------------
  free energy    TOTEN  =        36.40119205 eV

  energy without entropy =       36.40144985  energy(sigma->0) =       36.40127798


--------------------------------------------------------------------------------------------------------




----------------------------------------- Iteration    1(   3)  ---------------------------------------


     EDDAV:  cpu time    1.07: real time    1.07
       DOS:  cpu time    0.00: real time    0.00
    --------------------------------------------
      LOOP:  cpu time    1.07: real time    1.15

 eigenvalue-minimisations  :  8128
 total energy-change (2. order) :-0.8985036E+02  (-0.8667559E+02)
 number of electron      38.0000000 magnetization      -0.0000000
 augmentation part       38.0000000 magnetization      -0.0000000

 Free energy of the ion-electron system (eV)
  ---------------------------------------------------
  alpha Z        PSCENC =       170.09358264
  Ewald energy   TEWEN  =     -2223.73708239
  -1/2 Hartree   DENC   =      -550.14984903
  -exchange  EXHF       =         0.00000000
  -V(xc)+E(xc)   XCENC  =        93.24643219
  PAW double counting   =      2192.87916522    -2155.40356056
  entropy T*S    EENTRO =         0.00526951
  eigenvalues    EBANDS =      -135.66833706
  atomic energy  EATOM  =      2555.28521479
  ---------------------------------------------------
  free energy    TOTEN  =       -53.44916468 eV

  energy without entropy =      -53.45443419  energy(sigma->0) =      -53.45092118


--------------------------------------------------------------------------------------------------------




----------------------------------------- Iteration    1(   4)  ---------------------------------------


     EDDAV:  cpu time    0.89: real time    0.89
       DOS:  cpu time    0.00: real time    0.00
    --------------------------------------------
      LOOP:  cpu time    0.89: real time    0.98

 eigenvalue-minimisations  :  6672
 total energy-change (2. order) :-0.5700278E+01  (-0.5640961E+01)
 number of electron      38.0000000 magnetization      -0.0000000
 augmentation part       38.0000000 magnetization      -0.0000000

 Free energy of the ion-electron system (eV)
  ---------------------------------------------------
  alpha Z        PSCENC =       170.09358264
  Ewald energy   TEWEN  =     -2223.73708239
  -1/2 Hartree   DENC   =      -550.14984903
  -exchange  EXHF       =         0.00000000
  -V(xc)+E(xc)   XCENC  =        93.24643219
  PAW double counting   =      2192.87916522    -2155.40356056
  entropy T*S    EENTRO =         0.00734954
  eigenvalues    EBANDS =      -141.37069550
  atomic energy  EATOM  =      2555.28521479
  ---------------------------------------------------
  free energy    TOTEN  =       -59.14944309 eV

  energy without entropy =      -59.15679263  energy(sigma->0) =      -59.15189294


--------------------------------------------------------------------------------------------------------




----------------------------------------- Iteration    1(   5)  ---------------------------------------


     EDDAV:  cpu time    0.94: real time    0.94
       DOS:  cpu time    0.00: real time    0.00
    CHARGE:  cpu time    0.02: real time    0.02
    MIXING:  cpu time    0.00: real time    0.00
    --------------------------------------------
      LOOP:  cpu time    0.97: real time    1.05

 eigenvalue-minimisations  :  7104
 total energy-change (2. order) :-0.1223719E+00  (-0.1223644E+00)
 number of electron      38.0000119 magnetization       0.0000000
 augmentation part        7.5512630 magnetization       0.0000000

 Broyden mixing:
  rms(total) = 0.40948E+01    rms(broyden)= 0.40946E+01
  rms(prec ) = 0.67668E+01
  weight for this iteration     100.00

 Free energy of the ion-electron system (eV)
  ---------------------------------------------------
  alpha Z        PSCENC =       170.09358264
  Ewald energy   TEWEN  =     -2223.73708239
  -1/2 Hartree   DENC   =      -550.14984903
  -exchange  EXHF       =         0.00000000
  -V(xc)+E(xc)   XCENC  =        93.24643219
  PAW double counting   =      2192.87916522    -2155.40356056
  entropy T*S    EENTRO =         0.00706692
  eigenvalues    EBANDS =      -141.49278474
  atomic energy  EATOM  =      2555.28521479
  ---------------------------------------------------
  free energy    TOTEN  =       -59.27181495 eV

  energy without entropy =      -59.27888188  energy(sigma->0) =      -59.27417059


--------------------------------------------------------------------------------------------------------




----------------------------------------- Iteration    1(   6)  ---------------------------------------


    POTLOK:  cpu time    0.01: real time    0.01
    SETDIJ:  cpu time    0.01: real time    0.00
     EDDAV:  cpu time    0.97: real time    0.97
       DOS:  cpu time    0.00: real time    0.00
    CHARGE:  cpu time    0.02: real time    0.02
    MIXING:  cpu time    0.00: real time    0.00
    --------------------------------------------
      LOOP:  cpu time    1.01: real time    1.09

 eigenvalue-minimisations  :  7384
 total energy-change (2. order) : 0.9758371E+01  (-0.1606566E+02)
 number of electron      38.0000107 magnetization       0.0000000
 augmentation part       10.5628429 magnetization       0.0000000

 Broyden mixing:
  rms(total) = 0.46216E+01    rms(broyden)= 0.46213E+01
  rms(prec ) = 0.70012E+01
  weight for this iteration     100.00

 eigenvalues of (default mixing * dielectric matrix)
  average eigenvalue GAMMA=   0.2845
  0.2845

 Free energy of the ion-electron system (eV)
  ---------------------------------------------------
  alpha Z        PSCENC =       170.09358264
  Ewald energy   TEWEN  =     -2223.73708239
  -1/2 Hartree   DENC   =      -571.86422468
  -exchange  EXHF       =         0.00000000
  -V(xc)+E(xc)   XCENC  =        97.30515433
  PAW double counting   =      2609.39584379    -2565.73073589
  entropy T*S    EENTRO =         0.00178885
  eigenvalues    EBANDS =      -120.26298576
  atomic energy  EATOM  =      2555.28521479
  ---------------------------------------------------
  free energy    TOTEN  =       -49.51344431 eV

  energy without entropy =      -49.51523316  energy(sigma->0) =      -49.51404059


--------------------------------------------------------------------------------------------------------




----------------------------------------- Iteration    1(   7)  ---------------------------------------


    POTLOK:  cpu time    0.01: real time    0.01
    SETDIJ:  cpu time    0.00: real time    0.00
     EDDAV:  cpu time    1.01: real time    1.01
       DOS:  cpu time    0.00: real time    0.00
    CHARGE:  cpu time    0.02: real time    0.02
    MIXING:  cpu time    0.00: real time    0.00
    --------------------------------------------
      LOOP:  cpu time    1.05: real time    1.13

 eigenvalue-minimisations  :  7768
 total energy-change (2. order) : 0.3753508E+01  (-0.9079247E+01)
 number of electron      38.0000112 magnetization      -0.0000000
 augmentation part        8.0688952 magnetization      -0.0000000

 Broyden mixing:
  rms(total) = 0.19840E+01    rms(broyden)= 0.19839E+01
  rms(prec ) = 0.26973E+01
  weight for this iteration     100.00

 eigenvalues of (default mixing * dielectric matrix)
  average eigenvalue GAMMA=   0.6377
  0.9290  0.3464

 Free energy of the ion-electron system (eV)
  ---------------------------------------------------
  alpha Z        PSCENC =       170.09358264
  Ewald energy   TEWEN  =     -2223.73708239
  -1/2 Hartree   DENC   =      -564.66789048
  -exchange  EXHF       =         0.00000000
  -V(xc)+E(xc)   XCENC  =        94.80372326
  PAW double counting   =      2777.27979438    -2741.74512681
  entropy T*S    EENTRO =         0.00232873
  eigenvalues    EBANDS =      -113.07448011
  atomic energy  EATOM  =      2555.28521479
  ---------------------------------------------------
  free energy    TOTEN  =       -45.75993597 eV

  energy without entropy =      -45.76226471  energy(sigma->0) =      -45.76071222


--------------------------------------------------------------------------------------------------------




----------------------------------------- Iteration    1(   8)  ---------------------------------------


    POTLOK:  cpu time    0.01: real time    0.01
    SETDIJ:  cpu time    0.00: real time    0.00
     EDDAV:  cpu time    1.04: real time    1.04
       DOS:  cpu time    0.00: real time    0.00
    CHARGE:  cpu time    0.02: real time    0.02
    MIXING:  cpu time    0.00: real time    0.00
    --------------------------------------------
      LOOP:  cpu time    1.07: real time    1.15

 eigenvalue-minimisations  :  7952
 total energy-change (2. order) : 0.9013667E+00  (-0.4892034E+00)
 number of electron      38.0000113 magnetization      -0.0000000
 augmentation part        8.4814475 magnetization      -0.0000000

 Broyden mixing:
  rms(total) = 0.84894E+00    rms(broyden)= 0.84893E+00
  rms(prec ) = 0.11660E+01
  weight for this iteration     100.00

 eigenvalues of (default mixing * dielectric matrix)
  average eigenvalue GAMMA=   0.8762
  1.5947  0.6580  0.3758

 Free energy of the ion-electron system (eV)
  ---------------------------------------------------
  alpha Z        PSCENC =       170.09358264
  Ewald energy   TEWEN  =     -2223.73708239
  -1/2 Hartree   DENC   =      -558.09340355
  -exchange  EXHF       =         0.00000000
  -V(xc)+E(xc)   XCENC  =        95.46740877
  PAW double counting   =      3011.71580631    -2976.43303875
  entropy T*S    EENTRO =         0.00378433
  eigenvalues    EBANDS =      -119.16084142
  atomic energy  EATOM  =      2555.28521479
  ---------------------------------------------------
  free energy    TOTEN  =       -44.85856926 eV

  energy without entropy =      -44.86235360  energy(sigma->0) =      -44.85983071


--------------------------------------------------------------------------------------------------------




----------------------------------------- Iteration    1(   9)  ---------------------------------------


    POTLOK:  cpu time    0.01: real time    0.01
    SETDIJ:  cpu time    0.00: real time    0.00
     EDDAV:  cpu time    1.00: real time    1.00
       DOS:  cpu time    0.00: real time    0.00
    CHARGE:  cpu time    0.02: real time    0.02
    MIXING:  cpu time    0.00: real time    0.00
    --------------------------------------------
      LOOP:  cpu time    1.03: real time    1.13

 eigenvalue-minimisations  :  7616
 total energy-change (2. order) : 0.1405470E+00  (-0.1697179E+00)
 number of electron      38.0000112 magnetization       0.0000000
 augmentation part        8.8115908 magnetization       0.0000000

 Broyden mixing:
  rms(total) = 0.52723E+00    rms(broyden)= 0.52720E+00
  rms(prec ) = 0.62007E+00
  weight for this iteration     100.00

 eigenvalues of (default mixing * dielectric matrix)
  average eigenvalue GAMMA=   1.0763
  1.9253  1.3913  0.4038  0.5849

 Free energy of the ion-electron system (eV)
  ---------------------------------------------------
  alpha Z        PSCENC =       170.09358264
  Ewald energy   TEWEN  =     -2223.73708239
  -1/2 Hartree   DENC   =      -556.44437120
  -exchange  EXHF       =         0.00000000
  -V(xc)+E(xc)   XCENC  =        96.28362860
  PAW double counting   =      3193.75220717    -3159.18028797
  entropy T*S    EENTRO =         0.00363787
  eigenvalues    EBANDS =      -120.77455178
  atomic energy  EATOM  =      2555.28521479
  ---------------------------------------------------
  free energy    TOTEN  =       -44.71802228 eV

  energy without entropy =      -44.72166014  energy(sigma->0) =      -44.71923490


--------------------------------------------------------------------------------------------------------




----------------------------------------- Iteration    1(  10)  ---------------------------------------


    POTLOK:  cpu time    0.01: real time    0.01
    SETDIJ:  cpu time    0.00: real time    0.00
     EDDAV:  cpu time    1.03: real time    1.03
       DOS:  cpu time    0.00: real time    0.00
    CHARGE:  cpu time    0.02: real time    0.02
    MIXING:  cpu time    0.00: real time    0.00
    --------------------------------------------
      LOOP:  cpu time    1.07: real time    1.25

 eigenvalue-minimisations  :  7944
 total energy-change (2. order) : 0.4094525E-01  (-0.5747763E-01)
 number of electron      38.0000112 magnetization       0.0000000
 augmentation part        8.6637185 magnetization       0.0000000

 Broyden mixing:
  rms(total) = 0.21391E+00    rms(broyden)= 0.21390E+00
  rms(prec ) = 0.23323E+00
  weight for this iteration     100.00

 eigenvalues of (default mixing * dielectric matrix)
  average eigenvalue GAMMA=   1.0673
  2.1295  1.0886  1.0886  0.4036  0.6263

 Free energy of the ion-electron system (eV)
  ---------------------------------------------------
  alpha Z        PSCENC =       170.09358264
  Ewald energy   TEWEN  =     -2223.73708239
  -1/2 Hartree   DENC   =      -554.86891661
  -exchange  EXHF       =         0.00000000
  -V(xc)+E(xc)   XCENC  =        96.44041305
  PAW double counting   =      3277.37914291    -3244.04083200
  entropy T*S    EENTRO =         0.00401095
  eigenvalues    EBANDS =      -121.23261036
  atomic energy  EATOM  =      2555.28521479
  ---------------------------------------------------
  free energy    TOTEN  =       -44.67707703 eV

  energy without entropy =      -44.68108798  energy(sigma->0) =      -44.67841401


--------------------------------------------------------------------------------------------------------




----------------------------------------- Iteration    1(  11)  ---------------------------------------


    POTLOK:  cpu time    0.01: real time    0.01
    SETDIJ:  cpu time    0.00: real time    0.00
     EDDAV:  cpu time    1.06: real time    1.06
       DOS:  cpu time    0.00: real time    0.00
    CHARGE:  cpu time    0.02: real time    0.02
    MIXING:  cpu time    0.00: real time    0.00
    --------------------------------------------
      LOOP:  cpu time    1.09: real time    1.17

 eigenvalue-minimisations  :  8024
 total energy-change (2. order) :-0.2749598E-02  (-0.4784611E-02)
 number of electron      38.0000112 magnetization       0.0000000
 augmentation part        8.7014735 magnetization       0.0000000

 Broyden mixing:
  rms(total) = 0.65792E-01    rms(broyden)= 0.65791E-01
  rms(prec ) = 0.74297E-01
  weight for this iteration     100.00

 eigenvalues of (default mixing * dielectric matrix)
  average eigenvalue GAMMA=   1.0748
  2.1970  1.3197  1.3197  0.4052  0.6034  0.6034

 Free energy of the ion-electron system (eV)
  ---------------------------------------------------
  alpha Z        PSCENC =       170.09358264
  Ewald energy   TEWEN  =     -2223.73708239
  -1/2 Hartree   DENC   =      -554.99415039
  -exchange  EXHF       =         0.00000000
  -V(xc)+E(xc)   XCENC  =        96.26287775
  PAW double counting   =      3298.76921823    -3265.71497073
  entropy T*S    EENTRO =         0.00398766
  eigenvalues    EBANDS =      -120.64850420
  atomic energy  EATOM  =      2555.28521479
  ---------------------------------------------------
  free energy    TOTEN  =       -44.67982663 eV

  energy without entropy =      -44.68381429  energy(sigma->0) =      -44.68115585


--------------------------------------------------------------------------------------------------------




----------------------------------------- Iteration    1(  12)  ---------------------------------------


    POTLOK:  cpu time    0.01: real time    0.01
    SETDIJ:  cpu time    0.00: real time    0.00
     EDDAV:  cpu time    1.05: real time    1.05
       DOS:  cpu time    0.00: real time    0.00
    CHARGE:  cpu time    0.02: real time    0.02
    MIXING:  cpu time    0.00: real time    0.00
    --------------------------------------------
      LOOP:  cpu time    1.09: real time    1.16

 eigenvalue-minimisations  :  8032
 total energy-change (2. order) :-0.1210778E-02  (-0.2999216E-03)
 number of electron      38.0000112 magnetization      -0.0000000
 augmentation part        8.6912691 magnetization      -0.0000000

 Broyden mixing:
  rms(total) = 0.19333E-01    rms(broyden)= 0.19332E-01
  rms(prec ) = 0.20578E-01
  weight for this iteration     100.00

 eigenvalues of (default mixing * dielectric matrix)
  average eigenvalue GAMMA=   1.0464
  2.2434  1.5939  0.9445  0.9445  0.4048  0.5970  0.5970

 Free energy of the ion-electron system (eV)
  ---------------------------------------------------
  alpha Z        PSCENC =       170.09358264
  Ewald energy   TEWEN  =     -2223.73708239
  -1/2 Hartree   DENC   =      -554.93380872
  -exchange  EXHF       =         0.00000000
  -V(xc)+E(xc)   XCENC  =        96.25634238
  PAW double counting   =      3298.66288115    -3265.55719165
  entropy T*S    EENTRO =         0.00400155
  eigenvalues    EBANDS =      -120.75497715
  atomic energy  EATOM  =      2555.28521479
  ---------------------------------------------------
  free energy    TOTEN  =       -44.68103740 eV

  energy without entropy =      -44.68503895  energy(sigma->0) =      -44.68237125


--------------------------------------------------------------------------------------------------------




----------------------------------------- Iteration    1(  13)  ---------------------------------------


    POTLOK:  cpu time    0.01: real time    0.01
    SETDIJ:  cpu time    0.00: real time    0.00
     EDDAV:  cpu time    1.02: real time    1.02
       DOS:  cpu time    0.00: real time    0.00
    CHARGE:  cpu time    0.02: real time    0.02
    MIXING:  cpu time    0.00: real time    0.00
    --------------------------------------------
      LOOP:  cpu time    1.06: real time    1.13

 eigenvalue-minimisations  :  7792
 total energy-change (2. order) :-0.1680337E-03  (-0.8023511E-04)
 number of electron      38.0000112 magnetization       0.0000000
 augmentation part        8.6873079 magnetization       0.0000000

 Broyden mixing:
  rms(total) = 0.14197E-01    rms(broyden)= 0.14197E-01
  rms(prec ) = 0.21076E-01
  weight for this iteration     100.00

 eigenvalues of (default mixing * dielectric matrix)
  average eigenvalue GAMMA=   1.0798
  2.2475  1.8679  1.1101  1.1101  0.4048  0.6386  0.6386  0.6211

 Free energy of the ion-electron system (eV)
  ---------------------------------------------------
  alpha Z        PSCENC =       170.09358264
  Ewald energy   TEWEN  =     -2223.73708239
  -1/2 Hartree   DENC   =      -554.86863163
  -exchange  EXHF       =         0.00000000
  -V(xc)+E(xc)   XCENC  =        96.25451531
  PAW double counting   =      3299.60988874    -3266.51288683
  entropy T*S    EENTRO =         0.00400508
  eigenvalues    EBANDS =      -120.80981115
  atomic energy  EATOM  =      2555.28521479
  ---------------------------------------------------
  free energy    TOTEN  =       -44.68120544 eV

  energy without entropy =      -44.68521052  energy(sigma->0) =      -44.68254046


--------------------------------------------------------------------------------------------------------




----------------------------------------- Iteration    1(  14)  ---------------------------------------


    POTLOK:  cpu time    0.01: real time    0.01
    SETDIJ:  cpu time    0.00: real time    0.00
     EDDAV:  cpu time    0.55: real time    0.55
       DOS:  cpu time    0.00: real time    0.00
    --------------------------------------------
      LOOP:  cpu time    0.56: real time    0.64

 eigenvalue-minimisations  :  3048
 total energy-change (2. order) : 0.5120328E-04  (-0.1618486E-04)
 number of electron      38.0000112 magnetization       0.0000000
 augmentation part        8.6873079 magnetization       0.0000000

 Free energy of the ion-electron system (eV)
  ---------------------------------------------------
  alpha Z        PSCENC =       170.09358264
  Ewald energy   TEWEN  =     -2223.73708239
  -1/2 Hartree   DENC   =      -554.91816755
  -exchange  EXHF       =         0.00000000
  -V(xc)+E(xc)   XCENC  =        96.25011904
  PAW double counting   =      3300.76269468    -3267.66794586
  entropy T*S    EENTRO =         0.00400220
  eigenvalues    EBANDS =      -120.75357179
  atomic energy  EATOM  =      2555.28521479
  ---------------------------------------------------
  free energy    TOTEN  =       -44.68115423 eV

  energy without entropy =      -44.68515644  energy(sigma->0) =      -44.68248830


--------------------------------------------------------------------------------------------------------




 average (electrostatic) potential at core
  the test charge radii are     0.7215  1.0210
  (the norm of the test charge is              1.0000)
       1 -71.1644       2 -71.1644       3 -71.1644       4 -71.1644       5 -47.2318
       6 -47.2318
 
 
 
 E-fermi :   3.5518     XC(G=0): -12.0758     alpha+bet :-11.4014


 spin component 1

 k-point   1 :       0.0000    0.0000    0.0000
  band No.  band energies     occupation 
      1     -15.8818      1.00000
      2     -13.9739      1.00000
      3     -13.5863      1.00000
      4     -13.5639      1.00000
      5      -4.2861      1.00000
      6      -3.1543      1.00000
      7      -2.9488      1.00000
      8      -2.1152      1.00000
      9      -1.7056      1.00000
     10      -0.0291      1.00000
     11       0.0016      1.00000
     12       0.0919      1.00000
     13       0.1028      1.00000
     14       0.4022      1.00000
     15       1.0038      1.00000
     16       2.3066      1.00000
     17       2.9494      1.00009
     18       2.9950      1.00030
     19       3.5894      0.34373
     20       3.7624     -0.02979
     21       4.8885     -0.00000
     22       5.7782     -0.00000
     23       6.7555     -0.00000
     24       7.1590     -0.00000

 k-point   2 :       0.1667    0.0000    0.0000
  band No.  band energies     occupation 
      1     -15.7734      1.00000
      2     -14.1109      1.00000
      3     -13.6021      1.00000
      4     -13.5803      1.00000
      5      -4.1498      1.00000
      6      -3.0305      1.00000
      7      -2.7984      1.00000
      8      -2.1157      1.00000
      9      -1.6419      1.00000
     10      -0.3329      1.00000
     11      -0.3241      1.00000
     12      -0.0828      1.00000
     13       0.3116      1.00000
     14       0.6844      1.00000
     15       1.0070      1.00000
     16       2.1927      1.00000
     17       2.5592      1.00000
     18       2.7090      1.00000
     19       3.4600      0.84677
     20       4.4093     -0.00000
     21       5.0851     -0.00000
     22       5.8305     -0.00000
     23       6.7363     -0.00000
     24       7.0192     -0.00000

 k-point   3 :       0.3333    0.0000    0.0000
  band No.  band energies     occupation 
      1     -15.4649      1.00000
      2     -14.5026      1.00000
      3     -13.6274      1.00000
      4     -13.5879      1.00000
      5      -3.9162      1.00000
      6      -2.6928      1.00000
      7      -2.3822      1.00000
      8      -2.1192      1.00000
      9      -1.4570      1.00000
     10      -0.8814      1.00000
     11      -0.7316      1.00000
     12      -0.2333      1.00000
     13       0.3432      1.00000
     14       0.7493      1.00000
     15       1.0269      1.00000
     16       1.9750      1.00000
     17       2.2517      1.00000
     18       2.4314      1.00000
     19       3.1236      1.00494
     20       5.2905     -0.00000
     21       5.5529     -0.00000
     22       5.9088     -0.00000
     23       6.6372     -0.00000
     24       6.6908     -0.00000

 k-point   4 :       0.5000    0.0000    0.0000
  band No.  band energies     occupation 
      1     -15.0451      1.00000
      2     -14.9689      1.00000
      3     -13.6340      1.00000
      4     -13.5909      1.00000
      5      -3.8192      1.00000
      6      -2.4123      1.00000
      7      -2.1271      1.00000
      8      -2.1218      1.00000
      9      -1.2534      1.00000
     10      -1.1391      1.00000
     11      -1.0112      1.00000
     12      -0.2937      1.00000
     13       0.0906      1.00000
     14       0.6433      1.00000
     15       1.1803      1.00000
     16       1.8596      1.00000
     17       2.0808      1.00000
     18       2.6464      1.00000
     19       2.7794      1.00000
     20       5.8231     -0.00000
     21       5.8362     -0.00000
     22       6.1035     -0.00000
     23       6.1194     -0.00000
     24       6.6589     -0.00000

 k-point   5 :       0.1667    0.1667    0.0000
  band No.  band energies     occupation 
      1     -15.6746      1.00000
      2     -14.1884      1.00000
      3     -13.6424      1.00000
      4     -13.6118      1.00000
      5      -4.1702      1.00000
      6      -2.6909      1.00000
      7      -2.6046      1.00000
      8      -2.1292      1.00000
      9      -1.4410      1.00000
     10      -0.8317      1.00000
     11      -0.7666      1.00000
     12       0.1313      1.00000
     13       0.2679      1.00000
     14       0.8378      1.00000
     15       0.9673      1.00000
     16       1.9453      1.00000
     17       2.2741      1.00000
     18       2.9964      1.00031
     19       3.4112      0.96090
     20       4.8786     -0.00000
     21       4.9523     -0.00000
     22       5.7455     -0.00000
     23       6.7613     -0.00000
     24       7.1599     -0.00000

 k-point   6 :       0.3333    0.1667    0.0000
  band No.  band energies     occupation 
      1     -15.3929      1.00000
      2     -14.5092      1.00000
      3     -13.6632      1.00000
      4     -13.6437      1.00000
      5      -4.0503      1.00000
      6      -2.3606      1.00000
      7      -2.3193      1.00000
      8      -2.1378      1.00000
      9      -1.2780      1.00000
     10      -1.1451      1.00000
     11      -1.0000      1.00000
     12       0.0082      1.00000
     13       0.4391      1.00000
     14       0.5821      1.00000
     15       1.1851      1.00000
     16       1.7121      1.00000
     17       2.0657      1.00000
     18       2.6855      1.00000
     19       3.2529      1.02790
     20       5.0617     -0.00000
     21       5.3707     -0.00000
     22       5.9189     -0.00000
     23       6.7651     -0.00000
     24       7.0232     -0.00000

 k-point   7 :       0.5000    0.1667    0.0000
  band No.  band energies     occupation 
      1     -15.0088      1.00000
      2     -14.9349      1.00000
      3     -13.6684      1.00000
      4     -13.6377      1.00000
      5      -3.8839      1.00000
      6      -2.7233      1.00000
      7      -2.1335      1.00000
      8      -2.0561      1.00000
      9      -1.5046      1.00000
     10      -0.8115      1.00000
     11      -0.6694      1.00000
     12      -0.1672      1.00000
     13       0.2611      1.00000
     14       0.7438      1.00000
     15       1.2360      1.00000
     16       1.7511      1.00000
     17       1.7588      1.00000
     18       2.4673      1.00000
     19       3.0695      1.00170
     20       5.2060     -0.00000
     21       5.5199     -0.00000
     22       6.1758     -0.00000
     23       6.6558     -0.00000
     24       6.7579     -0.00000

 k-point   8 :       0.3333    0.3333    0.0000
  band No.  band energies     occupation 
      1     -15.1892      1.00000
      2     -14.6197      1.00000
      3     -13.7504      1.00000
      4     -13.6942      1.00000
      5      -4.0974      1.00000
      6      -2.6808      1.00000
      7      -2.1571      1.00000
      8      -2.1030      1.00000
      9      -1.5343      1.00000
     10      -0.6658      1.00000
     11      -0.6459      1.00000
     12       0.1525      1.00000
     13       0.3734      1.00000
     14       0.7857      1.00000
     15       1.3112      1.00000
     16       1.3231      1.00000
     17       1.8757      1.00000
     18       2.5547      1.00000
     19       3.3668      1.01549
     20       4.8598     -0.00000
     21       4.8785     -0.00000
     22       6.2406     -0.00000
     23       6.8673     -0.00000
     24       7.1621     -0.00000

 k-point   9 :       0.5000    0.3333    0.0000
  band No.  band energies     occupation 
      1     -14.9300      1.00000
      2     -14.8582      1.00000
      3     -13.7477      1.00000
      4     -13.7360      1.00000
      5      -4.0224      1.00000
      6      -3.0940      1.00000
      7      -2.1581      1.00000
      8      -1.8712      1.00000
      9      -1.7187      1.00000
     10      -0.3441      1.00000
     11      -0.2304      1.00000
     12       0.0076      1.00000
     13       0.2432      1.00000
     14       1.1767      1.00000
     15       1.3539      1.00000
     16       1.4939      1.00000
     17       1.6570      1.00000
     18       2.1321      1.00000
     19       3.3507      1.02566
     20       4.3927     -0.00000
     21       5.0409     -0.00000
     22       6.3316     -0.00000
     23       6.9003     -0.00000
     24       7.0309     -0.00000

 k-point  10 :       0.5000    0.5000    0.0000
  band No.  band energies     occupation 
      1     -14.8869      1.00000
      2     -14.8137      1.00000
      3     -13.8024      1.00000
      4     -13.7801      1.00000
      5      -4.0933      1.00000
      6      -3.2322      1.00000
      7      -2.1711      1.00000
      8      -1.7915      1.00000
      9      -1.7258      1.00000
     10      -0.0927      1.00000
     11      -0.0052      1.00000
     12       0.0416      1.00000
     13       0.0466      1.00000
     14       1.3214      1.00000
     15       1.3276      1.00000
     16       1.4225      1.00000
     17       1.9789      1.00000
     18       2.0050      1.00000
     19       3.4309      0.92196
     20       3.8794     -0.02130
     21       4.8509     -0.00000
     22       6.3610     -0.00000
     23       6.9595     -0.00000
     24       7.1632     -0.00000

 k-point  11 :       0.0000    0.0000    0.1111
  band No.  band energies     occupation 
      1     -15.7629      1.00000
      2     -13.9413      1.00000
      3     -13.6111      1.00000
      4     -13.5780      1.00000
      5      -4.1073      1.00000
      6      -3.0608      1.00000
      7      -2.8307      1.00000
      8      -2.1381      1.00000
      9      -1.9459      1.00000
     10      -0.3796      1.00000
     11      -0.0759      1.00000
     12       0.2906      1.00000
     13       0.3135      1.00000
     14       0.3654      1.00000
     15       1.0190      1.00000
     16       1.9298      1.00000
     17       2.6222      1.00000
     18       2.9696      1.00015
     19       3.4576      0.85361
     20       3.8964     -0.01756
     21       5.0257     -0.00000
     22       6.0301     -0.00000
     23       6.6895     -0.00000
     24       7.0084     -0.00000

 k-point  12 :       0.1667    0.0000    0.1111
  band No.  band energies     occupation 
      1     -15.6578      1.00000
      2     -14.0661      1.00000
      3     -13.6260      1.00000
      4     -13.5988      1.00000
      5      -3.9740      1.00000
      6      -2.9424      1.00000
      7      -2.7108      1.00000
      8      -2.1197      1.00000
      9      -1.8988      1.00000
     10      -0.5435      1.00000
     11      -0.2125      1.00000
     12      -0.0127      1.00000
     13       0.3226      1.00000
     14       0.6069      1.00000
     15       1.0422      1.00000
     16       1.6753      1.00000
     17       2.6183      1.00000
     18       2.7086      1.00000
     19       3.3379      1.03091
     20       4.4070     -0.00000
     21       5.1461     -0.00000
     22       6.0854     -0.00000
     23       6.6579     -0.00000
     24       6.8725     -0.00000

 k-point  13 :       0.3333    0.0000    0.1111
  band No.  band energies     occupation 
      1     -15.3594      1.00000
      2     -14.4358      1.00000
      3     -13.6472      1.00000
      4     -13.6125      1.00000
      5      -3.7416      1.00000
      6      -2.6294      1.00000
      7      -2.3824      1.00000
      8      -2.0581      1.00000
      9      -1.7887      1.00000
     10      -0.9573      1.00000
     11      -0.4808      1.00000
     12      -0.2341      1.00000
     13       0.2340      1.00000
     14       0.6301      1.00000
     15       0.9479      1.00000
     16       1.4826      1.00000
     17       2.4794      1.00000
     18       2.5808      1.00000
     19       3.0683      1.00166
     20       5.1108     -0.00000
     21       5.5527     -0.00000
     22       6.1353     -0.00000
     23       6.5075     -0.00000
     24       6.6465     -0.00000

 k-point  14 :       0.5000    0.0000    0.1111
  band No.  band energies     occupation 
      1     -14.9527      1.00000
      2     -14.8843      1.00000
      3     -13.6511      1.00000
      4     -13.6180      1.00000
      5      -3.6447      1.00000
      6      -2.4346      1.00000
      7      -2.0769      1.00000
      8      -2.0596      1.00000
      9      -1.5202      1.00000
     10      -1.4841      1.00000
     11      -0.5954      1.00000
     12      -0.1881      1.00000
     13       0.1166      1.00000
     14       0.3360      1.00000
     15       0.9656      1.00000
     16       1.5139      1.00000
     17       2.3763      1.00000
     18       2.7418      1.00000
     19       2.7876      1.00000
     20       5.5614     -0.00000
     21       5.7419     -0.00000
     22       6.0659     -0.00000
     23       6.3517     -0.00000
     24       6.6080     -0.00000

 k-point  15 :       0.1667    0.1667    0.1111
  band No.  band energies     occupation 
      1     -15.5620      1.00000
      2     -14.1357      1.00000
      3     -13.6648      1.00000
      4     -13.6319      1.00000
      5      -4.0010      1.00000
      6      -2.6528      1.00000
      7      -2.5262      1.00000
      8      -2.0839      1.00000
      9      -1.7714      1.00000
     10      -0.9643      1.00000
     11      -0.4750      1.00000
     12      -0.1977      1.00000
     13       0.4398      1.00000
     14       0.8811      1.00000
     15       0.9163      1.00000
     16       1.8492      1.00000
     17       2.1914      1.00000
     18       2.6019      1.00000
     19       3.2888      1.03436
     20       5.0548     -0.00000
     21       5.0646     -0.00000
     22       5.9898     -0.00000
     23       6.6741     -0.00000
     24       7.0192     -0.00000

 k-point  16 :       0.3333    0.1667    0.1111
  band No.  band energies     occupation 
      1     -15.2894      1.00000
      2     -14.4406      1.00000
      3     -13.6846      1.00000
      4     -13.6616      1.00000
      5      -3.8856      1.00000
      6      -2.4448      1.00000
      7      -2.2976      1.00000
      8      -1.9788      1.00000
      9      -1.5342      1.00000
     10      -1.4572      1.00000
     11      -0.5992      1.00000
     12      -0.2067      1.00000
     13       0.5022      1.00000
     14       0.7074      1.00000
     15       1.0257      1.00000
     16       1.5735      1.00000
     17       1.9945      1.00000
     18       2.5501      1.00000
     19       3.1751      1.01143
     20       5.0450     -0.00000
     21       5.5625     -0.00000
     22       6.1010     -0.00000
     23       6.6467     -0.00000
     24       6.8936     -0.00000

 k-point  17 :       0.5000    0.1667    0.1111
  band No.  band energies     occupation 
      1     -14.9173      1.00000
      2     -14.8512      1.00000
      3     -13.6839      1.00000
      4     -13.6609      1.00000
      5      -3.7161      1.00000
      6      -2.6760      1.00000
      7      -2.1997      1.00000
      8      -1.9647      1.00000
      9      -1.8778      1.00000
     10      -0.8906      1.00000
     11      -0.3790      1.00000
     12      -0.1922      1.00000
     13       0.3676      1.00000
     14       0.4998      1.00000
     15       0.9920      1.00000
     16       1.4035      1.00000
     17       2.0415      1.00000
     18       2.5504      1.00000
     19       3.0520      1.00116
     20       5.0877     -0.00000
     21       5.5773     -0.00000
     22       6.3031     -0.00000
     23       6.4964     -0.00000
     24       6.7232     -0.00000

 k-point  18 :       0.3333    0.3333    0.1111
  band No.  band energies     occupation 
      1     -15.0921      1.00000
      2     -14.5451      1.00000
      3     -13.7680      1.00000
      4     -13.7075      1.00000
      5      -3.9420      1.00000
      6      -2.6077      1.00000
      7      -2.3841      1.00000
      8      -1.9191      1.00000
      9      -1.8616      1.00000
     10      -0.8649      1.00000
     11      -0.3701      1.00000
     12      -0.0137      1.00000
     13       0.6089      1.00000
     14       0.8699      1.00000
     15       1.1804      1.00000
     16       1.3931      1.00000
     17       1.6632      1.00000
     18       2.2100      1.00000
     19       3.2953      1.03499
     20       5.0340     -0.00000
     21       5.0382     -0.00000
     22       6.4035     -0.00000
     23       6.7487     -0.00000
     24       7.0124     -0.00000

 k-point  19 :       0.5000    0.3333    0.1111
  band No.  band energies     occupation 
      1     -14.8407      1.00000
      2     -14.7764      1.00000
      3     -13.7650      1.00000
      4     -13.7458      1.00000
      5      -3.8689      1.00000
      6      -3.0122      1.00000
      7      -2.2885      1.00000
      8      -2.1208      1.00000
      9      -1.7566      1.00000
     10      -0.3608      1.00000
     11      -0.2662      1.00000
     12       0.1759      1.00000
     13       0.4996      1.00000
     14       0.9132      1.00000
     15       1.1356      1.00000
     16       1.2942      1.00000
     17       1.7708      1.00000
     18       2.0838      1.00000
     19       3.3001      1.03529
     20       4.4589     -0.00000
     21       5.1531     -0.00000
     22       6.5302     -0.00000
     23       6.7611     -0.00000
     24       6.8791     -0.00000

 k-point  20 :       0.5000    0.5000    0.1111
  band No.  band energies     occupation 
      1     -14.7988      1.00000
      2     -14.7325      1.00000
      3     -13.8180      1.00000
      4     -13.7857      1.00000
      5      -3.9467      1.00000
      6      -3.1440      1.00000
      7      -2.3065      1.00000
      8      -2.1856      1.00000
      9      -1.6659      1.00000
     10      -0.2805      1.00000
     11      -0.0676      1.00000
     12       0.3963      1.00000
     13       0.4482      1.00000
     14       0.9076      1.00000
     15       1.2848      1.00000
     16       1.4060      1.00000
     17       1.6825      1.00000
     18       1.9579      1.00000
     19       3.3727      1.01060
     20       4.0743     -0.00069
     21       4.9852     -0.00000
     22       6.5824     -0.00000
     23       6.8546     -0.00000
     24       6.9731     -0.00000

 k-point  21 :       0.0000    0.0000    0.2222
  band No.  band energies     occupation 
      1     -15.4309      1.00000
      2     -13.8829      1.00000
      3     -13.6744      1.00000
      4     -13.6146      1.00000
      5      -3.6054      1.00000
      6      -2.8193      1.00000
      7      -2.4979      1.00000
      8      -2.3493      1.00000
      9      -2.0849      1.00000
     10      -1.1925      1.00000
     11      -0.1479      1.00000
     12      -0.1086      1.00000
     13       0.7465      1.00000
     14       0.7608      1.00000
     15       1.0396      1.00000
     16       1.2573      1.00000
     17       1.7749      1.00000
     18       2.9902      1.00026
     19       3.0990      1.00312
     20       4.1598     -0.00007
     21       5.1920     -0.00000
     22       6.4841     -0.00000
     23       6.5303     -0.00000
     24       6.8106     -0.00000

 k-point  22 :       0.1667    0.0000    0.2222
  band No.  band energies     occupation 
      1     -15.3365      1.00000
[...]
      4     -13.8077      1.00000
      5      -3.1991      1.00000
      6      -2.9610      1.00000
      7      -2.5510      1.00000
      8      -2.4403      1.00000
      9      -1.6359      1.00000
     10      -1.3416      1.00000
     11      -0.8086      1.00000
     12      -0.2012      1.00000
     13      -0.0170      1.00000
     14       0.7347      1.00000
     15       0.9439      1.00000
     16       1.7315      1.00000
     17       1.9629      1.00000
     18       2.3821      1.00000
     19       2.9918      1.00031
     20       4.9872     -0.00000
     21       5.1461     -0.00000
     22       6.1767     -0.00000
     23       6.3993     -0.00000
     24       6.6946     -0.00000

 k-point  40 :       0.5000    0.5000    0.3333
  band No.  band energies     occupation 
      1     -14.2919      1.00000
      2     -14.2680      1.00000
      3     -13.9079      1.00000
      4     -13.8219      1.00000
      5      -3.2195      1.00000
      6      -3.1081      1.00000
      7      -2.7011      1.00000
      8      -2.4007      1.00000
      9      -1.7154      1.00000
     10      -1.3155      1.00000
     11      -0.6963      1.00000
     12      -0.0949      1.00000
     13       0.0126      1.00000
     14       0.5038      1.00000
     15       1.2129      1.00000
     16       1.8766      1.00000
     17       1.9921      1.00000
     18       2.3742      1.00000
     19       3.0380      1.00096
     20       4.9619     -0.00000
     21       5.3223     -0.00000
     22       6.2020     -0.00000
     23       6.3572     -0.00000
     24       6.7600     -0.00000

 k-point  41 :       0.0000    0.0000    0.4444
  band No.  band energies     occupation 
      1     -14.4685      1.00000
      2     -14.0866      1.00000
      3     -13.7959      1.00000
      4     -13.6879      1.00000
      5      -2.8177      1.00000
      6      -2.7878      1.00000
      7      -2.0821      1.00000
      8      -1.8636      1.00000
      9      -1.6377      1.00000
     10      -1.4038      1.00000
     11      -1.2223      1.00000
     12      -0.3878      1.00000
     13      -0.0265      1.00000
     14       0.0053      1.00000
     15       0.7602      1.00000
     16       0.8474      1.00000
     17       1.5737      1.00000
     18       2.3767      1.00000
     19       3.1307      1.00615
     20       4.7808     -0.00000
     21       5.1655     -0.00000
     22       6.2193     -0.00000
     23       6.2514     -0.00000
     24       6.8875     -0.00000

 k-point  42 :       0.1667    0.0000    0.4444
  band No.  band energies     occupation 
      1     -14.4207      1.00000
      2     -14.0631      1.00000
      3     -13.8291      1.00000
      4     -13.7260      1.00000
      5      -3.0213      1.00000
      6      -2.7288      1.00000
      7      -2.0877      1.00000
      8      -2.0064      1.00000
      9      -1.6054      1.00000
     10      -1.3400      1.00000
     11      -0.9393      1.00000
     12      -0.4031      1.00000
     13      -0.1393      1.00000
     14       0.1320      1.00000
     15       0.5642      1.00000
     16       1.0872      1.00000
     17       1.5147      1.00000
     18       2.4127      1.00000
     19       3.0404      1.00101
     20       4.8293     -0.00000
     21       4.8824     -0.00000
     22       6.2157     -0.00000
     23       6.2872     -0.00000
     24       6.8440     -0.00000

 k-point  43 :       0.3333    0.0000    0.4444
  band No.  band energies     occupation 
      1     -14.2900      1.00000
      2     -14.0017      1.00000
      3     -13.9348      1.00000
      4     -13.8124      1.00000
      5      -3.3196      1.00000
      6      -2.7844      1.00000
      7      -2.0898      1.00000
      8      -1.8510      1.00000
      9      -1.4381      1.00000
     10      -1.3542      1.00000
     11      -0.7166      1.00000
     12      -0.5859      1.00000
     13      -0.1357      1.00000
     14       0.1690      1.00000
     15       0.2981      1.00000
     16       1.5057      1.00000
     17       1.6675      1.00000
     18       2.4135      1.00000
     19       2.7715      1.00000
     20       4.4468     -0.00000
     21       4.9251     -0.00000
     22       6.1424     -0.00000
     23       6.3487     -0.00000
     24       6.7129     -0.00000

 k-point  44 :       0.5000    0.0000    0.4444
  band No.  band energies     occupation 
      1     -14.1242      1.00000
      2     -14.1002      1.00000
      3     -13.9105      1.00000
      4     -13.9042      1.00000
      5      -3.4395      1.00000
      6      -2.8845      1.00000
      7      -1.8383      1.00000
      8      -1.8104      1.00000
      9      -1.3636      1.00000
     10      -1.3059      1.00000
     11      -1.0861      1.00000
     12      -0.2820      1.00000
     13      -0.2763      1.00000
     14       0.1037      1.00000
     15       0.2061      1.00000
     16       1.7257      1.00000
     17       2.0633      1.00000
     18       2.2457      1.00000
     19       2.5445      1.00000
     20       4.2724     -0.00000
     21       4.9565     -0.00000
     22       6.1062     -0.00000
     23       6.3705     -0.00000
     24       6.6338     -0.00000

 k-point  45 :       0.1667    0.1667    0.4444
  band No.  band energies     occupation 
      1     -14.3820      1.00000
      2     -14.0499      1.00000
      3     -13.8744      1.00000
      4     -13.7254      1.00000
      5      -3.0091      1.00000
      6      -2.7858      1.00000
      7      -2.4287      1.00000
      8      -1.8366      1.00000
      9      -1.7368      1.00000
     10      -1.5001      1.00000
     11      -0.8036      1.00000
     12      -0.1684      1.00000
     13      -0.0239      1.00000
     14       0.1524      1.00000
     15       0.6401      1.00000
     16       1.3396      1.00000
     17       1.4360      1.00000
     18       2.4853      1.00000
     19       2.9158      1.00004
     20       4.4208     -0.00000
     21       4.9631     -0.00000
     22       6.1960     -0.00000
     23       6.3428     -0.00000
     24       6.8261     -0.00000

 k-point  46 :       0.3333    0.1667    0.4444
  band No.  band energies     occupation 
      1     -14.2674      1.00000
      2     -14.0080      1.00000
      3     -13.9618      1.00000
      4     -13.7857      1.00000
      5      -3.2570      1.00000
      6      -2.8577      1.00000
      7      -2.4219      1.00000
      8      -1.9715      1.00000
      9      -1.5457      1.00000
     10      -1.3602      1.00000
     11      -0.7131      1.00000
     12      -0.4255      1.00000
     13      -0.0225      1.00000
     14       0.1126      1.00000
     15       0.5649      1.00000
     16       1.6338      1.00000
     17       1.9008      1.00000
     18       2.4706      1.00000
     19       2.7268      1.00000
     20       4.2671     -0.00000
     21       5.0516     -0.00000
     22       6.1251     -0.00000
     23       6.3590     -0.00000
     24       6.6885     -0.00000

 k-point  47 :       0.5000    0.1667    0.4444
  band No.  band energies     occupation 
      1     -14.1181      1.00000
      2     -14.0988      1.00000
      3     -13.9285      1.00000
      4     -13.8764      1.00000
      5      -3.4527      1.00000
      6      -2.8487      1.00000
      7      -2.1441      1.00000
      8      -2.0507      1.00000
      9      -1.4126      1.00000
     10      -1.2359      1.00000
     11      -0.8511      1.00000
     12      -0.5875      1.00000
     13      -0.1547      1.00000
     14       0.1005      1.00000
     15       0.3615      1.00000
     16       1.9968      1.00000
     17       2.0352      1.00000
     18       2.3778      1.00000
     19       2.6476      1.00000
     20       4.4846     -0.00000
     21       5.0422     -0.00000
     22       6.0731     -0.00000
     23       6.3608     -0.00000
     24       6.5952     -0.00000

 k-point  48 :       0.3333    0.3333    0.4444
  band No.  band energies     occupation 
      1     -14.1967      1.00000
      2     -14.0330      1.00000
      3     -13.9689      1.00000
      4     -13.7988      1.00000
      5      -3.3131      1.00000
      6      -2.9225      1.00000
      7      -2.5164      1.00000
      8      -2.3685      1.00000
      9      -1.3855      1.00000
     10      -1.2701      1.00000
     11      -0.7933      1.00000
     12      -0.7085      1.00000
     13      -0.0010      1.00000
     14       0.1214      1.00000
     15       0.7516      1.00000
     16       2.0332      1.00000
     17       2.2667      1.00000
     18       2.3940      1.00000
     19       2.8538      1.00001
     20       4.4991     -0.00000
     21       5.2146     -0.00000
     22       6.0430     -0.00000
     23       6.3541     -0.00000
     24       6.6446     -0.00000

 k-point  49 :       0.5000    0.3333    0.4444
  band No.  band energies     occupation 
      1     -14.1063      1.00000
      2     -14.0959      1.00000
      3     -13.9379      1.00000
      4     -13.8470      1.00000
      5      -3.4568      1.00000
      6      -2.8487      1.00000
      7      -2.5215      1.00000
      8      -2.2881      1.00000
      9      -1.6352      1.00000
     10      -1.1592      1.00000
     11      -0.8504      1.00000
     12      -0.6772      1.00000
     13      -0.1105      1.00000
     14       0.0689      1.00000
     15       0.7152      1.00000
     16       2.0386      1.00000
     17       2.3745      1.00000
     18       2.6594      1.00000
     19       2.8567      1.00001
     20       4.9464     -0.00000
     21       5.2711     -0.00000
     22       5.9840     -0.00000
     23       6.3532     -0.00000
     24       6.4942     -0.00000

 k-point  50 :       0.5000    0.5000    0.4444
  band No.  band energies     occupation 
      1     -14.1009      1.00000
      2     -14.0939      1.00000
      3     -13.9401      1.00000
      4     -13.8346      1.00000
      5      -3.4400      1.00000
      6      -2.9222      1.00000
      7      -2.7026      1.00000
      8      -2.1570      1.00000
      9      -1.9127      1.00000
     10      -1.1744      1.00000
     11      -0.8247      1.00000
     12      -0.6953      1.00000
     13      -0.0427      1.00000
     14       0.0167      1.00000
     15       0.8763      1.00000
     16       2.0559      1.00000
     17       2.5012      1.00000
     18       2.8578      1.00001
     19       2.9329      1.00006
     20       5.2170     -0.00000
     21       5.4376     -0.00000
     22       5.9340     -0.00000
     23       6.3773     -0.00000
     24       6.3782     -0.00000


--------------------------------------------------------------------------------------------------------


 soft charge-density along one line, spin component           1
         0         1         2         3         4         5         6         7         8         9
 total charge-density along one line
 
 soft charge-density along one line, spin component           2
         0         1         2         3         4         5         6         7         8         9
 total charge-density along one line
 
 pseudopotential strength for first ion, spin component:           1
 12.351 -15.044  -0.010  -0.000  -0.010   0.013   0.000   0.013
-15.044  18.346   0.013   0.000   0.013  -0.017  -0.000  -0.017
 -0.010   0.013  -8.589   0.000  -0.072  10.341  -0.000   0.097
 -0.000   0.000   0.000  -8.663  -0.000  -0.000  10.444   0.000
 -0.010   0.013  -0.072  -0.000  -8.589   0.097   0.000  10.341
  0.013  -0.017  10.341  -0.000   0.097 -12.303   0.000  -0.131
  0.000  -0.000  -0.000  10.444   0.000   0.000 -12.445  -0.000
  0.013  -0.017   0.097   0.000  10.341  -0.131  -0.000 -12.303
 pseudopotential strength for first ion, spin component:           2
 12.356 -15.051  -0.005  -0.000  -0.005   0.006   0.000   0.006
-15.051  18.355   0.006   0.000   0.006  -0.007  -0.000  -0.007
 -0.005   0.006  -8.621   0.000  -0.062  10.386  -0.000   0.082
 -0.000   0.000   0.000  -8.613  -0.000  -0.000  10.373   0.000
 -0.005   0.006  -0.062  -0.000  -8.621   0.082   0.000  10.386
  0.006  -0.007  10.386  -0.000   0.082 -12.366   0.000  -0.111
  0.000  -0.000  -0.000  10.373   0.000   0.000 -12.346  -0.000
  0.006  -0.007   0.082   0.000  10.386  -0.111  -0.000 -12.366
 total augmentation occupancy for first ion, spin component:           1
  2.583   0.343   0.026   0.000   0.026   0.010   0.000   0.010
  0.343   0.068   0.024  -0.000   0.024   0.005   0.000   0.005
  0.026   0.024   2.042   0.000  -0.006   0.211   0.000   0.059
  0.000   0.000   0.000   2.013   0.000   0.000   0.237   0.000
  0.026   0.024  -0.006   0.000   2.042   0.059   0.000   0.211
  0.010   0.005   0.211   0.000   0.059   0.029   0.000   0.012
  0.000   0.000   0.000   0.237   0.000   0.000   0.032  -0.000
  0.010   0.005   0.059   0.000   0.211   0.012  -0.000   0.029
 total augmentation occupancy for first ion, spin component:           2
  0.002  -0.000   0.002   0.000   0.002  -0.002   0.000  -0.002
 -0.000  -0.002  -0.016  -0.000  -0.016  -0.003   0.000  -0.003
  0.002  -0.016  -0.034   0.000   0.013   0.006   0.000  -0.002
  0.000   0.000   0.000   0.076   0.000   0.000  -0.005   0.000
  0.002  -0.016   0.013   0.000  -0.034  -0.002   0.000   0.006
 -0.002  -0.003   0.006   0.000  -0.002   0.000   0.000   0.000
  0.000   0.000   0.000  -0.005   0.000   0.000  -0.003   0.000
 -0.002  -0.003  -0.002   0.000   0.006   0.000   0.000   0.000


------------------------ aborting loop because EDIFF is reached ----------------------------------------


    CHARGE:  cpu time    0.02: real time    0.02
    FORLOC:  cpu time    0.00: real time    0.00
    FORNL :  cpu time    0.06: real time    0.06
    STRESS:  cpu time    0.14: real time    0.14
    FORCOR:  cpu time    0.01: real time    0.01
    FORHAR:  cpu time    0.00: real time    0.00
    MIXING:  cpu time    0.00: real time    0.00

  FORCE on cell =-STRESS in cart. coord.  units (eV):
  Direction    XX          YY          ZZ          XY          YZ          ZX
  --------------------------------------------------------------------------------------
  Alpha Z   169.95517   169.95517   169.95517
  Ewald    -826.95749  -826.95749  -569.33655    -0.00000    -0.00000    -0.00000
  Hartree   150.17764   150.17764   254.57423    -0.00000    -0.00000    -0.00000
  E(xc)    -184.92992  -184.92992  -185.33140    -0.00000    -0.00000     0.00000
  Local      69.45718    69.45718  -269.93630    -0.00000    -0.00000    -0.00000
  n-local  -131.51448  -131.74834  -125.86614     0.18421    -0.33291     0.07687
  augment    88.86524    88.86524    85.61126    -0.00000    -0.00000     0.00000
  Kinetic   665.24795   664.48437   640.10175    -1.20761     0.41661    -0.81495
  Fock        0.00000     0.00000     0.00000     0.00000     0.00000     0.00000
  -------------------------------------------------------------------------------------
  Total      -0.19743    -0.19743    -0.22798     0.00000     0.00000     0.00000
  in kB      -5.65066    -5.65066    -6.52496     0.00000     0.00000     0.00000
  external pressure =       -5.94 kB  Pullay stress =        0.00 kB


 VOLUME and BASIS-vectors are now :
 -----------------------------------------------------------------------------
  energy-cutoff  :      520.00
  volume of cell :       55.98
      direct lattice vectors                 reciprocal lattice vectors
     4.393120689  0.000000000  0.000000000     0.227628620  0.000000000  0.000000000
    -0.000000000  4.393120689  0.000000000    -0.000000000  0.227628620  0.000000000
     0.000000000  0.000000000  2.900601591     0.000000000  0.000000000  0.344756068

  length of vectors
     4.393120689  4.393120689  2.900601591     0.227628620  0.227628620  0.344756068


 FORCES acting on ions
    electron-ion (+dipol)            ewald-force                    non-local-force                 convergence-correction
 -----------------------------------------------------------------------------------------------
   0.263E+02 0.263E+02 0.772E-05   -.293E+02 -.293E+02 -.456E-14   0.295E+01 0.295E+01 0.631E-17   -.753E-02 -.753E-02 0.957E-12
   0.263E+02 -.263E+02 -.975E-12   -.293E+02 0.293E+02 -.303E-14   0.295E+01 -.295E+01 0.495E-17   -.753E-02 0.753E-02 -.377E-12
   -.263E+02 0.263E+02 -.441E-13   0.293E+02 -.293E+02 -.279E-14   -.295E+01 0.295E+01 -.807E-17   0.753E-02 -.753E-02 0.557E-12
   -.263E+02 -.263E+02 -.772E-05   0.293E+02 0.293E+02 -.192E-14   -.295E+01 -.295E+01 -.538E-17   0.753E-02 0.753E-02 0.139E-11
   0.108E-13 0.969E-14 0.259E-12   -.281E-14 0.258E-13 0.267E-14   0.164E-22 0.130E-22 -.276E-23   0.631E-12 0.108E-12 0.210E-12
   0.546E-12 0.108E-11 0.192E-13   -.398E-13 0.168E-13 0.268E-14   -.224E-22 0.193E-22 -.838E-24   0.368E-13 -.395E-12 -.459E-12
 -----------------------------------------------------------------------------------------------
   0.330E-12 0.680E-12 -.722E-11   -.142E-13 0.141E-13 -.696E-14   -.444E-15 -.888E-15 -.220E-17   0.582E-12 0.132E-11 0.228E-11
 
 
 POSITION                                       TOTAL-FORCE (eV/Angst)
 -----------------------------------------------------------------------------------
      1.34175      1.34175     -0.00000         0.000485      0.000485      0.000000
      3.53831      0.85481      1.45030         0.000485     -0.000485     -0.000000
      0.85481      3.53831      1.45030        -0.000485      0.000485      0.000000
      3.05137      3.05137      0.00000        -0.000485     -0.000485     -0.000000
     -0.00000      0.00000      0.00000        -0.000000      0.000000     -0.000000
      2.19656      2.19656      1.45030        -0.000000      0.000000     -0.000000
 -----------------------------------------------------------------------------------
    total drift:                                0.000000      0.000000     -0.000000


--------------------------------------------------------------------------------------------------------



  FREE ENERGIE OF THE ION-ELECTRON SYSTEM (eV)
  ---------------------------------------------------
  free  energy   TOTEN  =       -44.68122079 eV

  energy  without entropy=      -44.68522424  energy(sigma->0) =      -44.68255527
 
 d Force = 0.7550423E-05[ 0.881E-06, 0.142E-04]  d Energy = 0.3056230E-04-0.230E-04
 d Force =-0.5313001E-01[-0.532E-01,-0.530E-01]  d Ewald  = 0.3597822E+00-0.413E+00


--------------------------------------------------------------------------------------------------------


    POTLOK:  cpu time    0.01: real time    0.01


--------------------------------------------------------------------------------------------------------




--------------------------------------------------------------------------------------------------------


  
 reached required accuracy - stopping structural energy minimisation
     LOOP+:  cpu time    1.57: real time    2.10
    4ORBIT:  cpu time    0.00: real time    0.00

 total amount of memory used by VASP on root node    38409. kBytes
========================================================================

   base      :      30000. kBytes
   nonl-proj :       5566. kBytes
   fftplans  :        227. kBytes
   grid      :        558. kBytes
   one-center:         62. kBytes
   wavefun   :       1996. kBytes
 
  
  
 General timing and accounting informations for this job:
 ========================================================
  
                  Total CPU time used (sec):       18.772
                            User time (sec):       18.553
                          System time (sec):        0.219
                         Elapsed time (sec):       22.571
  
                   Maximum memory used (kb):       82240.
                   Average memory used (kb):           0.
  
                          Minor page faults:        13144
                          Major page faults:            0
                 Voluntary context switches:         2574
