 vasp.5.3.3 18Dez12 (build May 12 2016 12:04:25) complex                        
  
 executed on             LinuxIFC date 2019.03.14  12:26:37
 running on   64 total cores
 distrk:  each k-point on   64 cores,    1 groups
 distr:  one band on NCORES_PER_BAND=   8 cores,    8 groups


--------------------------------------------------------------------------------------------------------


 INCAR:
 POTCAR:   PAW_PBE Mn 06Sep2000                   
 POTCAR:   PAW_PBE O_s 07Sep2000                  
 POTCAR:    PAW_PBE Li 17Jan2003                  
 POTCAR:   PAW_PBE Mn 06Sep2000                   
  local pseudopotential read in
  partial core-charges read in
  atomic valenz-charges read in
  non local Contribution for L=           2  read in
    real space projection operators read in
  non local Contribution for L=           2  read in
    real space projection operators read in
  non local Contribution for L=           0  read in
    real space projection operators read in
  non local Contribution for L=           0  read in
    real space projection operators read in
  non local Contribution for L=           1  read in
    real space projection operators read in
  non local Contribution for L=           1  read in
    real space projection operators read in
    PAW grid and wavefunctions read in
 
   number of l-projection  operators is LMAX  =           6
   number of lm-projection operators is LMMAX =          18
 
 POTCAR:   PAW_PBE O_s 07Sep2000                  
  local pseudopotential read in
  atomic valenz-charges read in
  non local Contribution for L=           0  read in
    real space projection operators read in
  non local Contribution for L=           0  read in
    real space projection operators read in
  non local Contribution for L=           1  read in
    real space projection operators read in
  non local Contribution for L=           1  read in
    real space projection operators read in
    PAW grid and wavefunctions read in
 
   number of l-projection  operators is LMAX  =           4
   number of lm-projection operators is LMMAX =           8
 
 POTCAR:    PAW_PBE Li 17Jan2003                  
  local pseudopotential read in
  partial core-charges read in
  atomic valenz-charges read in
  non local Contribution for L=           0  read in
    real space projection operators read in
  non local Contribution for L=           0  read in
    real space projection operators read in
  non local Contribution for L=           1  read in
    real space projection operators read in
    PAW grid and wavefunctions read in
 
   number of l-projection  operators is LMAX  =           3
   number of lm-projection operators is LMMAX =           5
 

 ----------------------------------------------------------------------------- 
|                                                                             |
|  ADVICE TO THIS USER RUNNING 'VASP/VAMP'   (HEAR YOUR MASTER'S VOICE ...):  |
|                                                                             |
|      You have a (more or less) 'large supercell' and for larger cells       |
|      it might be more efficient to use real space projection operators      |
|      So try LREAL= Auto  in the INCAR   file.                               |
|      Mind: If you want to do a very accurate calculations keep the          |
|      reciprocal projection scheme          (i.e. LREAL=.FALSE.)             |
|                                                                             |
 ----------------------------------------------------------------------------- 

 PAW_PBE Mn 06Sep2000                   :
 energy of atom  1       EATOM= -416.8732
 kinetic energy error for atom=    0.0088 (will be added to EATOM!!)
 PAW_PBE O_s 07Sep2000                  :
 energy of atom  2       EATOM= -432.2909
 kinetic energy error for atom=    0.0164 (will be added to EATOM!!)
  PAW_PBE Li 17Jan2003                  :
 energy of atom  3       EATOM=   -5.3001
 kinetic energy error for atom=    0.0000 (will be added to EATOM!!)
 
 
 POSCAR: (Li2 Mn15 O30)2  (P1) ~ CONTCAR (VASP)  
  positions in direct lattice
  velocities in cartesian coordinates
 exchange correlation table for  LEXCH =        8
   RHO(1)=    0.500       N(1)  =     2000
   RHO(2)=  100.500       N(2)  =     4000
 


--------------------------------------------------------------------------------------------------------


 ion  position               nearest neighbor table
   1  0.072  0.259  0.606-  52 1.91  52 1.91  31 1.92  63 1.94  72 1.96  72 1.96  10 2.94  10 2.95

   2  0.079  0.256  0.471-  51 1.91  51 1.91  32 1.92  64 1.96  71 1.96  71 1.96   9 2.94   9 2.95

   3  0.963  0.757  0.023-  50 1.91  50 1.91  33 1.93  70 1.95  70 1.96  65 1.96   8 2.96   8 2.97

   4  0.044  0.250  0.333-  49 1.93  49 1.93  66 1.94  34 1.94  69 1.95  69 1.95   7 2.94   7 2.95

   5  0.968  0.754  0.160-  48 1.92  48 1.92  35 1.93  67 1.94  68 1.95  68 1.95   6 2.95   6 2.95

   6  0.041  0.253  0.197-  47 1.92  47 1.92  36 1.93  68 1.94  67 1.95  67 1.95   5 2.95   5 2.95

   7  0.944  0.752  0.296-  46 1.91  46 1.91  37 1.92  69 1.95  66 1.95  66 1.95   4 2.94   4 2.95

   8  0.039  0.256  0.060-  45 1.92  45 1.92  70 1.94  38 1.94  65 1.95  65 1.95   3 2.96   3 2.97

   9  0.952  0.756  0.435-  71 1.94  64 1.94  64 1.94  44 1.96  44 1.96  39 1.97  91 2.80   2 2.94
                             2 2.95
  10  0.958  0.758  0.569-  43 1.92  43 1.92  72 1.93  40 1.94  63 1.95  63 1.95   1 2.94   1 2.95

  11  0.468  0.260  0.674-  41 1.91  41 1.91  42 1.93  53 1.95  62 1.96  62 1.96  20 2.95  20 2.95

  12  0.457  0.257  0.538-  40 1.91  40 1.91  43 1.92  54 1.94  61 1.96  61 1.96  19 2.94  19 2.94

  13  0.448  0.256  0.403-  44 1.93  39 1.93  39 1.93  55 1.94  60 1.96  60 1.96  91 2.72  91 2.72
                            91 2.92  91 2.92  18 3.05  18 3.06
  14  0.539  0.755  0.091-  38 1.92  38 1.92  45 1.93  56 1.95  59 1.95  59 1.95  17 2.96  17 2.96

  15  0.446  0.252  0.265-  37 1.92  37 1.92  46 1.93  57 1.93  58 1.95  58 1.95  16 2.94  16 2.94

  16  0.539  0.753  0.228-  36 1.91  36 1.91  47 1.93  58 1.94  57 1.95  57 1.95  15 2.94  15 2.94

  17  0.470  0.254  0.129-  35 1.92  35 1.92  48 1.94  59 1.94  56 1.95  56 1.95  14 2.96  14 2.96

  18  0.546  0.752  0.364-  49 1.90  34 1.90  34 1.91  60 1.97  55 2.06  55 2.07  91 2.70  13 3.05
                            13 3.06
  19  0.576  0.756  0.502-  32 1.92  32 1.92  61 1.93  51 1.94  54 1.95  54 1.95  12 2.94  12 2.94

  20  0.570  0.760  0.637-  31 1.92  31 1.92  62 1.93  52 1.94  53 1.95  53 1.95  11 2.95  11 2.95

  21  0.969  0.761  0.705-  77 1.92  77 1.92  42 1.93  42 1.93  86 1.95  41 1.95
  22  0.970  0.762  0.768-  78 1.92  78 1.92  82 1.93  82 1.93  87 1.95  73 1.96
  23  0.969  0.762  0.832-  79 1.93  79 1.93  83 1.93  83 1.93  88 1.96  74 1.96
  24  0.969  0.761  0.896-  84 1.93  84 1.93  80 1.93  80 1.93  75 1.96  89 1.96
  25  0.967  0.759  0.959-  85 1.93  85 1.93  81 1.93  81 1.93  76 1.95  90 1.96
  26  0.468  0.262  0.737-  73 1.93  73 1.93  86 1.93  86 1.93  82 1.94  77 1.96
  27  0.469  0.262  0.800-  74 1.93  74 1.93  87 1.93  87 1.93  83 1.95  78 1.96
  28  0.469  0.262  0.864-  88 1.93  88 1.93  75 1.93  75 1.93  79 1.96  84 1.96
  29  0.469  0.260  0.927-  89 1.93  89 1.93  76 1.93  76 1.93  80 1.95  85 1.96
  30  0.466  0.258  0.991-  90 1.92  90 1.92  33 1.93  33 1.93  50 1.95  81 1.96
  31  0.398  0.259  0.623-  20 1.92  20 1.92   1 1.92
  32  0.411  0.256  0.488-   2 1.92  19 1.92  19 1.92
  33  0.638  0.758  0.005-  30 1.93  30 1.93   3 1.93
  34  0.362  0.250  0.351-  18 1.90  18 1.91   4 1.94
  35  0.664  0.754  0.141-  17 1.92  17 1.92   5 1.93
  36  0.353  0.253  0.216-  16 1.91  16 1.91   6 1.93
  37  0.624  0.752  0.278-  15 1.92  15 1.92   7 1.92
  38  0.345  0.255  0.079-  14 1.92  14 1.92   8 1.94
  39  0.636  0.756  0.416-  13 1.93  13 1.93   9 1.97  91 2.00
  40  0.626  0.757  0.552-  12 1.91  12 1.91  10 1.94
  41  0.648  0.760  0.687-  11 1.91  11 1.91  21 1.95
  42  0.137  0.261  0.691-  11 1.93  21 1.93  21 1.93
  43  0.126  0.258  0.555-  10 1.92  12 1.92  10 1.92
  44  0.113  0.256  0.419-  13 1.93   9 1.96   9 1.96  91 2.44  91 2.45
  45  0.846  0.756  0.072-   8 1.92   8 1.92  14 1.93
  46  0.123  0.252  0.283-   7 1.91   7 1.91  15 1.93
  47  0.853  0.753  0.210-   6 1.92   6 1.92  16 1.93
  48  0.164  0.254  0.148-   5 1.92   5 1.92  17 1.94
  49  0.871  0.751  0.347-  18 1.90   4 1.93   4 1.93
  50  0.150  0.257  0.010-   3 1.91   3 1.91  30 1.95
  51  0.911  0.756  0.485-   2 1.91   2 1.91  19 1.94
  52  0.898  0.759  0.619-   1 1.91   1 1.91  20 1.94
  53  0.735  0.260  0.652-  20 1.95  11 1.95  20 1.95
  54  0.735  0.256  0.517-  12 1.94  19 1.95  19 1.95
  55  0.725  0.257  0.381-  91 1.94  91 1.94  13 1.94  18 2.06  18 2.07
  56  0.292  0.755  0.115-  14 1.95  17 1.95  17 1.95
  57  0.709  0.252  0.243-  15 1.93  16 1.95  16 1.95
  58  0.277  0.752  0.250-  16 1.94  15 1.95  15 1.95
  59  0.717  0.255  0.106-  17 1.94  14 1.95  14 1.95
  60  0.291  0.755  0.387-  91 1.78  13 1.96  13 1.96  18 1.97
  61  0.299  0.757  0.523-  19 1.93  12 1.96  12 1.96
  62  0.303  0.760  0.658-  20 1.93  11 1.96  11 1.96
  63  0.797  0.258  0.584-   1 1.94  10 1.95  10 1.95
  64  0.796  0.255  0.450-   9 1.94   9 1.94   2 1.96
  65  0.215  0.756  0.046-   8 1.95   8 1.95   3 1.96
  66  0.776  0.251  0.311-   4 1.94   7 1.95   7 1.95
  67  0.217  0.753  0.183-   5 1.94   6 1.95   6 1.95
  68  0.791  0.253  0.175-   6 1.94   5 1.95   5 1.95
  69  0.211  0.751  0.318-   4 1.95   4 1.95   7 1.95
  70  0.790  0.257  0.037-   8 1.94   3 1.95   3 1.96
  71  0.236  0.756  0.456-   9 1.94   2 1.96   2 1.96
  72  0.232  0.758  0.590-  10 1.93   1 1.96   1 1.96
  73  0.637  0.762  0.751-  26 1.93  26 1.93  22 1.96
  74  0.637  0.762  0.814-  27 1.93  27 1.93  23 1.96
  75  0.637  0.761  0.878-  28 1.93  28 1.93  24 1.96
  76  0.636  0.760  0.942-  29 1.93  29 1.93  25 1.95
  77  0.801  0.261  0.719-  21 1.92  21 1.92  26 1.96
  78  0.801  0.262  0.782-  22 1.92  22 1.92  27 1.96
  79  0.801  0.262  0.846-  23 1.93  23 1.93  28 1.96
  80  0.801  0.261  0.910-  24 1.93  24 1.93  29 1.95
  81  0.800  0.259  0.974-  25 1.93  25 1.93  30 1.96
  82  0.136  0.262  0.754-  22 1.93  22 1.93  26 1.94
  83  0.137  0.262  0.818-  23 1.93  23 1.93  27 1.95
  84  0.138  0.261  0.881-  24 1.93  24 1.93  28 1.96
  85  0.137  0.259  0.945-  25 1.93  25 1.93  29 1.96
  86  0.304  0.761  0.722-  26 1.93  26 1.93  21 1.95
  87  0.302  0.762  0.786-  27 1.93  27 1.93  22 1.95
  88  0.301  0.762  0.850-  28 1.93  28 1.93  23 1.96
  89  0.301  0.760  0.913-  29 1.93  29 1.93  24 1.96
  90  0.298  0.758  0.977-  30 1.92  30 1.92  25 1.96
  91  0.922  0.756  0.394-  60 1.78  55 1.94  55 1.94  39 2.00  44 2.44  44 2.45  18 2.70  13 2.72
                            13 2.72   9 2.80  13 2.92  13 2.92
 
  LATTYP: Found a triclinic cell.
 ALAT       =    68.2442568381
 B/A-ratio  =     0.0681874660
 C/A-ratio  =     0.0431358503
 COS(alpha) =     0.0001520751
 COS(beta)  =     0.0002965207
 COS(gamma) =     0.0023940566
  
  Lattice vectors:
  
 A1 = (   0.0587205089,   0.0100495490,  68.2442308353)
 A2 = (   4.6533974610,   0.0003461436,   0.0071364639)
 A3 = (   0.0002280287,   2.9437740045,   0.0004391981)


Analysis of symmetry for initial positions (statically):
=====================================================================
 Subroutine PRICEL returns:
 Original cell was already a primitive cell.
 

 Routine SETGRP: Setting up the symmetry group for a 
 triclinic supercell.


 Subroutine GETGRP returns: Found  1 space group operations
 (whereof  1 operations were pure point group operations)
 out of a pool of  2 trial point group operations.


The static configuration has the point symmetry C_1 .


Analysis of symmetry for dynamics (positions and initial velocities):
=====================================================================
 Subroutine PRICEL returns:
 Original cell was already a primitive cell.
 

 Routine SETGRP: Setting up the symmetry group for a 
 triclinic supercell.


 Subroutine GETGRP returns: Found  1 space group operations
 (whereof  1 operations were pure point group operations)
 out of a pool of  2 trial point group operations.


The dynamic configuration has the point symmetry C_1 .


Analysis of magnetic symmetry:
=====================================================================

 Subroutine MAGSYM returns: Found  1 space group operations
 (whereof  1 operations were pure point group operations)
 out of a pool of  1 trial space group operations
 (whereof  1 operations were pure point group operations)
 and found also     1 'primitive' translations


The magnetic configuration has the point symmetry C_1 .


 irot  :   1
 --------------------------------------------------------------------
 isymop:   1   0   0
           0   1   0
           0   0   1

 gtrans:     0.0000000     0.0000000     0.0000000

 ptrans:     0.0000000     0.0000000     0.0000000
 rotmap:
 (   1->   1)  (   2->   2)  (   3->   3)  (   4->   4)  (   5->   5) 
 (   6->   6)  (   7->   7)  (   8->   8)  (   9->   9)  (  10->  10) 
 (  11->  11)  (  12->  12)  (  13->  13)  (  14->  14)  (  15->  15) 
 (  16->  16)  (  17->  17)  (  18->  18)  (  19->  19)  (  20->  20) 
 (  21->  21)  (  22->  22)  (  23->  23)  (  24->  24)  (  25->  25) 
 (  26->  26)  (  27->  27)  (  28->  28)  (  29->  29)  (  30->  30) 
 (  31->  31)  (  32->  32)  (  33->  33)  (  34->  34)  (  35->  35) 
 (  36->  36)  (  37->  37)  (  38->  38)  (  39->  39)  (  40->  40) 
 (  41->  41)  (  42->  42)  (  43->  43)  (  44->  44)  (  45->  45) 
 (  46->  46)  (  47->  47)  (  48->  48)  (  49->  49)  (  50->  50) 
 (  51->  51)  (  52->  52)  (  53->  53)  (  54->  54)  (  55->  55) 
 (  56->  56)  (  57->  57)  (  58->  58)  (  59->  59)  (  60->  60) 
 (  61->  61)  (  62->  62)  (  63->  63)  (  64->  64)  (  65->  65) 
 (  66->  66)  (  67->  67)  (  68->  68)  (  69->  69)  (  70->  70) 
 (  71->  71)  (  72->  72)  (  73->  73)  (  74->  74)  (  75->  75) 
 (  76->  76)  (  77->  77)  (  78->  78)  (  79->  79)  (  80->  80) 
 (  81->  81)  (  82->  82)  (  83->  83)  (  84->  84)  (  85->  85) 
 (  86->  86)  (  87->  87)  (  88->  88)  (  89->  89)  (  90->  90) 
 (  91->  91) 
 
 
 KPOINTS: Automatic mesh                          

Automatic generation of k-mesh.
Space group operators:
 irot       det(A)        alpha          n_x          n_y          n_z        tau_x        tau_y        tau_z
    1     1.000000     0.000000     1.000000     0.000000     0.000000     0.000000     0.000000     0.000000
 
 Subroutine IBZKPT returns following result:
 ===========================================
 
 Found      4 irreducible k-points:
 
 Following reciprocal coordinates:
            Coordinates               Weight
  0.000000  0.000000  0.000000      1.000000
  0.500000  0.000000 -0.000000      1.000000
  0.000000  0.333333 -0.000000      2.000000
  0.500000  0.333333 -0.000000      2.000000
 
 Following cartesian coordinates:
            Coordinates               Weight
  0.000000  0.000000  0.000000      1.000000
  0.107449 -0.000008 -0.000092      1.000000
 -0.000008  0.113233 -0.000017      2.000000
  0.107440  0.113225 -0.000109      2.000000
 


--------------------------------------------------------------------------------------------------------




 Dimension of arrays:
   k-points           NKPTS =      4   k-points in BZ     NKDIM =      4   number of bands    NBANDS=    408
   number of dos      NEDOS =    301   number of ions     NIONS =     91
   non local maximal  LDIM  =      6   non local SUM 2l+1 LMDIM =     18
   total plane-waves  NPLWV = 112896
   max r-space proj   IRMAX =      1   max aug-charges    IRDMAX=   4639
   dimension x,y,z NGX =    24 NGY =   14 NGZ =  336
   dimension x,y,z NGXF=    48 NGYF=   28 NGZF=  672
   support grid    NGXF=    48 NGYF=   28 NGZF=  672
   ions per type =              30  60   1
 NGX,Y,Z   is equivalent  to a cutoff of   8.57,  7.91,  8.19 a.u.
 NGXF,Y,Z  is equivalent  to a cutoff of  17.15, 15.81, 16.37 a.u.


 I would recommend the setting:
   dimension x,y,z NGX =    23 NGY =   14 NGZ =  334
 SYSTEM =  unknown system                          
 POSCAR =  (Li2 Mn15 O30)2  (P1) ~ CONTCAR (VASP)  

 Startparameter for this run:
   NWRITE =      1    write-flag & timer
   PREC   = normal    normal or accurate (medium, high low for compatibility)
   ISTART =      0    job   : 0-new  1-cont  2-samecut
   ICHARG =      2    charge: 1-file 2-atom 10-const
   ISPIN  =      2    spin polarized calculation?
   LNONCOLLINEAR =      F non collinear calculations
   LSORBIT =      F    spin-orbit coupling
   INIWAV =      1    electr: 0-lowe 1-rand  2-diag
   LASPH  =      F    aspherical Exc in radial PAW
   METAGGA=      F    non-selfconsistent MetaGGA calc.

 Electronic Relaxation 1
   ENCUT  =  400.0 eV  29.40 Ry    5.42 a.u.   7.59  4.80111.29*2*pi/ulx,y,z
   ENINI  =  400.0     initial cutoff
   ENAUG  =  500.7 eV  augmentation charge cutoff
   NELM   =     60;   NELMIN=  2; NELMDL= -5     # of ELM steps 
   EDIFF  = 0.1E-03   stopping-criterion for ELM
   LREAL  =      F    real-space projection
   NLSPLINE    = F    spline interpolate recip. space projectors
   LCOMPAT=      F    compatible to vasp.4.4
   GGA_COMPAT  = T    GGA compatible to vasp.4.4-vasp.4.6
   LMAXPAW     = -100 max onsite density
   LMAXMIX     =    4 max onsite mixed and CHGCAR
   VOSKOWN=      1    Vosko Wilk Nusair interpolation
   ROPT   =    0.00000   0.00000   0.00000
 Ionic relaxation
   EDIFFG = 0.1E-02   stopping-criterion for IOM
   NSW    =    151    number of steps for IOM
   NBLOCK =      1;   KBLOCK =    151    inner block; outer block 
   IBRION =      2    ionic relax: 0-MD 1-quasi-New 2-CG
   NFREE  =      1    steps in history (QN), initial steepest desc. (CG)
   ISIF   =      3    stress and relaxation
   IWAVPR =     11    prediction:  0-non 1-charg 2-wave 3-comb
   ISYM   =      2    0-nonsym 1-usesym 2-fastsym
   LCORR  =      T    Harris-Foulkes like correction to forces

   POTIM  = 0.5000    time-step for ionic-motion
   TEIN   =    0.0    initial temperature
   TEBEG  =    0.0;   TEEND  =   0.0 temperature during run
   SMASS  =  -3.00    Nose mass-parameter (am)
   estimated Nose-frequenzy (Omega)   =  0.10E-29 period in steps =****** mass=  -0.495E-27a.u.
   SCALEE = 1.0000    scale energy and forces
   NPACO  =    256;   APACO  = 16.0  distance and # of slots for P.C.
   PSTRESS=    0.0 pullay stress

  Mass of Ions in am
   POMASS =  54.94 16.00  7.01
  Ionic Valenz
   ZVAL   =   7.00  6.00  1.00
  Atomic Wigner-Seitz radii
   RWIGS  =  -1.00 -1.00 -1.00
  virtual crystal weights 
   VCA    =   1.00  1.00  1.00
   NELECT =     571.0000    total number of electrons
   NUPDOWN=      -1.0000    fix difference up-down

 DOS related values:
   EMIN   =  10.00;   EMAX   =-10.00  energy-range for DOS
   EFERMI =   0.00
   ISMEAR =     1;   SIGMA  =   0.20  broadening in eV -4-tet -1-fermi 0-gaus

 Electronic relaxation 2 (details)
   IALGO  =     38    algorithm
   LDIAG  =      T    sub-space diagonalisation (order eigenvalues)
   LSUBROT=      T    optimize rotation matrix (better conditioning)
   TURBO    =      0    0=normal 1=particle mesh
   IRESTART =      0    0=no restart 2=restart with 2 vectors
   NREBOOT  =      0    no. of reboots
   NMIN     =      0    reboot dimension
   EREF     =   0.00    reference energy to select bands
   IMIX   =      4    mixing-type and parameters
     AMIX     =   0.40;   BMIX     =  1.00
     AMIX_MAG =   1.60;   BMIX_MAG =  1.00
     AMIN     =   0.01
     WC   =   100.;   INIMIX=   1;  MIXPRE=   1;  MAXMIX= -45

 Intra band minimization:
   WEIMIN = 0.0010     energy-eigenvalue tresh-hold
   EBREAK =  0.61E-07  absolut break condition
   DEPER  =   0.30     relativ break condition  

   TIME   =   0.40     timestep for ELM

  volume/ion in A,a.u.               =      10.27        69.33
  Fermi-wavevector in a.u.,A,eV,Ry     =   1.389015  2.624857 26.250566  1.929362
  Thomas-Fermi vector in A             =   2.513086
 
 Write flags
   LWAVE  =      F    write WAVECAR
   LCHARG =      F    write CHGCAR
   LVTOT  =      F    write LOCPOT, total local potential
   LVHAR  =      F    write LOCPOT, Hartree potential only
   LELF   =      F    write electronic localiz. function (ELF)
   LORBIT =      0    0 simple, 1 ext, 2 COOP (PROOUT)


 Dipole corrections
   LMONO  =      F    monopole corrections only (constant potential shift)
   LDIPOL =      F    correct potential (dipole corrections)
   IDIPOL =      0    1-x, 2-y, 3-z, 4-all directions 
   EPSILON=  1.0000000 bulk dielectric constant

 LDA+U is selected, type is set to LDAUTYPE =  2
   angular momentum for each species LDAUL =     2   -1    0
   U (eV)           for each species LDAUU =   3.9  0.0  1.0
   J (eV)           for each species LDAUJ =   0.0  0.0  0.0
 Exchange correlation treatment:
   GGA     =    --    GGA type
   LEXCH   =     8    internal setting for exchange type
   VOSKOWN=      1    Vosko Wilk Nusair interpolation
   LHFCALC =     F    Hartree Fock is set to
   LHFONE  =     F    Hartree Fock one center treatment
   AEXX    =    0.0000 exact exchange contribution

 Linear response parameters
   LEPSILON=     F    determine dielectric tensor
   LRPA    =     F    only Hartree local field effects (RPA)
   LNABLA  =     F    use nabla operator in PAW spheres
   LVEL    =     F    velocity operator in full k-point grid
   LINTERFAST=   F  fast interpolation
   KINTER  =     0    interpolate to denser k-point grid
   CSHIFT  =0.1000    complex shift for real part using Kramers Kronig
   OMEGAMAX=  -1.0    maximum frequency
   DEG_THRESHOLD= 0.2000000E-02 threshold for treating states as degnerate
   RTIME   =    0.100 relaxation time in fs

 Orbital magnetization related:
   ORBITALMAG=     F  switch on orbital magnetization
   LCHIMAG   =     F  perturbation theory with respect to B field
   DQ        =  0.001000  dq finite difference perturbation B field



--------------------------------------------------------------------------------------------------------


 conjugate gradient relaxation of ions
 charge density and potential will be updated during run
 spin polarized calculation
 Variant of blocked Davidson
 Davidson routine will perform the subspace rotation
 perform sub-space diagonalisation
    after iterative eigenvector-optimisation
 modified Broyden-mixing scheme, WC =      100.0
 initial mixing is a Kerker type mixing with AMIX =  0.4000 and BMIX =      1.0000
 Hartree-type preconditioning will be used
 using additional bands          122
 reciprocal scheme for non local part
 use partial core corrections
 calculate Harris-corrections to forces 
   (improved forces if not selfconsistent)
 use gradient corrections 
 use of overlap-Matrix (Vanderbilt PP)
 Methfessel and Paxton  Order N= 1 SIGMA  =   0.20


--------------------------------------------------------------------------------------------------------


  energy-cutoff  :      400.00
  volume of cell :      934.85
      direct lattice vectors                 reciprocal lattice vectors
     4.653397461  0.000346144  0.007136464     0.214897037 -0.000016619 -0.000184905
     0.000228029  2.943774005  0.000439198    -0.000025192  0.339699999 -0.000050002
     0.058720509  0.010049549 68.244230835    -0.000022472 -0.000002184  0.014653273

  length of vectors
     4.653402946  2.943774046 68.244256838     0.214897117  0.339700004  0.014653290


 
 k-points in units of 2pi/SCALE and weight: Automatic mesh                          
   0.00000000  0.00000000  0.00000000       0.167
   0.10744852 -0.00000831 -0.00009245       0.167
  -0.00000840  0.11323333 -0.00001667       0.333
   0.10744012  0.11322502 -0.00010912       0.333
 
 k-points in reciprocal lattice and weights: Automatic mesh                          
   0.00000000  0.00000000  0.00000000       0.167
   0.50000000  0.00000000 -0.00000000       0.167
   0.00000000  0.33333333 -0.00000000       0.333
   0.50000000  0.33333333 -0.00000000       0.333
 
 position of ions in fractional coordinates (direct lattice) 
   0.07182107  0.25851354  0.60584190
   0.07900849  0.25579235  0.47125266
   0.96343437  0.75707138  0.02260417
   0.04371485  0.25027010  0.33293407
   0.96827132  0.75361223  0.16010723
   0.04072456  0.25306274  0.19720399
   0.94365336  0.75152192  0.29620149
   0.03937011  0.25607225  0.05996575
   0.95164175  0.75572974  0.43491406
   0.95778364  0.75777773  0.56929870
   0.46815639  0.26024736  0.67370444
   0.45702289  0.25691574  0.53847350
   0.44795183  0.25581507  0.40261563
   0.53926321  0.75508306  0.09145946
   0.44560526  0.25214902  0.26519122
   0.53928668  0.75256315  0.22839071
   0.47002039  0.25432520  0.12873377
   0.54602616  0.75214592  0.36389037
   0.57622808  0.75641207  0.50199362
   0.57020350  0.75952281  0.63681987
   0.96913443  0.76102808  0.70504463
   0.96966591  0.76190777  0.76831721
   0.96938731  0.76186253  0.83187520
   0.96869466  0.76091104  0.89554668
   0.96659399  0.75918379  0.95921845
   0.46799846  0.26155253  0.73662639
   0.46888023  0.26201960  0.80007392
   0.46939778  0.26150728  0.86370153
   0.46890077  0.26013023  0.92738779
   0.46585294  0.25817253  0.99100167
   0.39799098  0.25933556  0.62307788
   0.41073868  0.25631514  0.48783544
   0.63790185  0.75786146  0.00501762
   0.36198577  0.24992454  0.35134141
   0.66419308  0.75407892  0.14098078
   0.35301557  0.25270650  0.21580844
   0.62360062  0.75196398  0.27846173
   0.34451947  0.25530114  0.07932536
   0.63587521  0.75580924  0.41576069
   0.62592092  0.75696280  0.55214574
   0.64801375  0.76028863  0.68664735
   0.13688192  0.26089710  0.69069454
   0.12557865  0.25758383  0.55529363
   0.11267942  0.25573211  0.41934890
   0.84575133  0.75582412  0.07235003
   0.12344031  0.25168460  0.28313939
   0.85287471  0.75292485  0.20991314
   0.16447763  0.25371696  0.14807009
   0.87071050  0.75072334  0.34701794
   0.14983491  0.25726880  0.00991265
   0.91080435  0.75581913  0.48499010
   0.89830529  0.75861986  0.61926182
   0.73489557  0.25950823  0.65169341
   0.73455652  0.25634046  0.51720847
   0.72457679  0.25659776  0.38123922
   0.29184239  0.75452706  0.11453140
   0.70899002  0.25236092  0.24321049
   0.27707984  0.75227516  0.25048615
   0.71708259  0.25480395  0.10581870
   0.29142009  0.75517755  0.38695452
   0.29880799  0.75686306  0.52299741
   0.30331849  0.76013903  0.65848281
   0.79736981  0.25784747  0.58443838
   0.79587472  0.25537205  0.45008669
   0.21512024  0.75621637  0.04551371
   0.77565326  0.25143296  0.31119774
   0.21732990  0.75314421  0.18288282
   0.79062788  0.25346171  0.17455093
   0.21055296  0.75067294  0.31812955
   0.78991335  0.25680790  0.03731643
   0.23595791  0.75572459  0.45558293
   0.23218797  0.75830577  0.59042523
   0.63661159  0.76151657  0.75068885
   0.63730319  0.76189111  0.81421337
   0.63726918  0.76129186  0.87792573
   0.63603002  0.75984122  0.94167245
   0.80137761  0.26104936  0.71903256
   0.80120489  0.26185975  0.78241853
   0.80128819  0.26172801  0.84606611
   0.80113138  0.26068944  0.90982527
   0.80038399  0.25890199  0.97359276
   0.13584423  0.26185515  0.75395889
   0.13698585  0.26190379  0.81762520
   0.13750884  0.26102477  0.88139304
   0.13662419  0.25936204  0.94514015
   0.30368304  0.76148548  0.72215599
   0.30185315  0.76204416  0.78577597
   0.30129822  0.76161727  0.84950514
   0.30052398  0.76031063  0.91325847
   0.29755104  0.75837781  0.97700554
   0.92184718  0.75630952  0.39390860
 
 position of ions in cartesian coordinates  (Angst):
   0.36984629  0.76711873 41.34584069
   0.39538843  0.75775810 32.16095134
   4.48474303  2.22920770  1.54981239
   0.22302969  0.74009958 22.72125113
   4.51532474  2.22040827 10.93363559
   0.20114520  0.74695542 13.45843644
   4.40875861  2.21561401 20.22110750
   0.18678439  0.75443509  4.09270996
   4.45407800  2.22939765 29.68749869
   4.49055026  2.23677910 38.85851996
   2.21813735  0.77304190 45.97989628
   2.15838719  0.76187150 36.75108438
   2.10819806  0.75726291 27.47950295
   2.51494878  2.22389967  6.24576046
   2.08920803  0.74508904 18.10106178
   2.52309811  2.21785773 15.59052769
   2.19480898  0.75013234  8.78880306
   2.56241609  2.21799354 24.83764553
   2.71106808  2.23195044 34.26261270
   2.69095112  2.24246063 43.46368523
   4.55134181  2.24771552 48.12247865
   4.55753062  2.25094116 52.44047176
   4.55996632  2.25144662 56.77793568
   4.56048172  2.24928530 61.12314169
   4.55444493  2.24483980 65.46835650
   2.22109755  0.77751629 50.27395607
   2.22892656  0.77952916 54.60389059
   2.23507108  0.77866063 58.94611125
   2.23649763  0.77524675 63.29232664
   2.22604986  0.77012197 67.63358439
   1.88865681  0.76982470 42.52442485
   1.94003470  0.75957853 33.29499812
   2.96887830  2.23124408  0.34730892
   1.70515158  0.73937750 23.97971728
   3.09920480  2.22148461  9.62619577
   1.65545176  0.74620179 14.73031093
   2.91838443  2.21662628 19.00818719
   1.60790226  0.75246529  5.41606877
   2.98356610  2.22932989 28.37813821
   2.94525370  2.23409289 37.68556062
   3.05595919  2.24524270 46.86467869
   0.67758343  0.77501066 47.13700914
   0.61703322  0.76389250 37.89659603
   0.54902482  0.75707080 28.61905924
   3.94003786  2.22599523  4.94384001
   0.59110032  0.74379074 19.32362167
   3.98126292  2.21884536 14.33177807
   0.77413239  0.74843036 10.10621470
   4.07231031  2.21374863 23.68851560
   0.69788213  0.75749270  0.67766316
   4.26698586  2.23014992 33.10460821
   4.21670793  2.23973966 42.26779027
   3.45808813  0.77073720 44.47967382
   3.44861262  0.76006034 35.30184918
   3.39418885  0.75944789 26.02266120
   1.36495601  2.22240916  7.81852113
   3.31355133  0.74558309 16.60288322
   1.30424284  2.21714125 17.09654249
   3.34314216  0.75139688  7.22674522
   1.37898786  2.22706163 26.40982506
   1.42135559  2.23339311 35.69402113
   1.45030128  2.24439998 44.94015126
   3.74485597  0.76519402 39.89035142
   3.73000895  0.75655627 30.72161190
   1.00388500  2.22666194  3.10791539
   3.62775392  0.74355771 21.24309657
   1.02223313  2.21899946 12.48257928
   3.68941328  0.74816182 11.91784751
   0.99863853  2.21308142 21.71233855
   3.67803056  0.75663286  2.55238079
   1.12493033  2.22934248 31.09292268
   1.11530591  2.23829468 40.29510567
   3.00666121  2.24949714 51.23506080
   3.01360982  2.25123832 55.57024803
   3.01719264  2.25011453 59.91824859
   3.01516922  2.24648436 64.26858480
   3.77141002  0.77597367 49.07565732
   3.77432852  0.77899621 53.40138375
   3.77845354  0.77924805 57.74496452
   3.78146759  0.77683144 62.09615719
   3.78173374  0.77221016 66.44791470
   0.67646974  0.77846635 51.45442866
   0.68552070  0.77924976 55.79929577
   0.69169868  0.77730313 60.15108614
   0.69132491  0.77304877 64.50145171
   1.45573688  2.24900362 49.28548179
   1.45095763  2.25128697 53.62716537
   1.45211743  2.25067056 57.97630966
   1.45225792  2.24746454 62.32710067
   1.44216643  2.24241435 66.67744820
   4.31302431  2.23068199 26.88890005
 


--------------------------------------------------------------------------------------------------------


 k-point  1 :   0.0000 0.0000 0.0000  plane waves:   16905
 k-point  2 :   0.5000 0.0000-0.0000  plane waves:   16970
 k-point  3 :   0.0000 0.3333-0.0000  plane waves:   17076
 k-point  4 :   0.5000 0.3333-0.0000  plane waves:   16946

 maximum and minimum number of plane-waves per node :      2152     2090

 maximum number of plane-waves:     17076
 maximum index in each direction: 
   IXMAX=    7   IYMAX=    4   IZMAX=  111
   IXMIN=   -8   IYMIN=   -5   IZMIN= -111

 WARNING: aliasing errors must be expected set NGX to  32 to avoid them
 WARNING: aliasing errors must be expected set NGY to  20 to avoid them
 WARNING: aliasing errors must be expected set NGZ to 446 to avoid them
 aliasing errors are usually negligible using standard VASP settings
 and one can safely disregard these warnings

 parallel 3D FFT for wavefunctions:
    minimum data exchange during FFTs selected (reduces bandwidth)
 parallel 3D FFT for charge:
    minimum data exchange during FFTs selected (reduces bandwidth)


 total amount of memory used by VASP on root node    55859. kBytes
========================================================================

   base      :      30000. kBytes
   nonl-proj :       6801. kBytes
   fftplans  :       1064. kBytes
   grid      :       2790. kBytes
   one-center:        373. kBytes
   wavefun   :      14831. kBytes
 
 Broyden mixing: mesh for mixing (old mesh)
   NGX = 15   NGY =  9   NGZ =223
  (NGX  = 48   NGY  = 28   NGZ  =672)
  gives a total of  30105 points

 initial charge density was supplied:
 charge density of overlapping atoms calculated
 number of electron     571.0000000 magnetization     120.0000000
 keeping initial charge density in first step


--------------------------------------------------------------------------------------------------------


 Maximum index for augmentation-charges          304 (set IRDMAX)


--------------------------------------------------------------------------------------------------------


 First call to EWALD:  gamma=   0.181
 Maximum number of real-space cells 5x 8x 1
 Maximum number of reciprocal cells 2x 1x16

 FEWALD executed in parallel
    FEWALD:  cpu time    0.00: real time    0.00


----------------------------------------- Iteration    1(   1)  ---------------------------------------


    POTLOK:  cpu time    0.05: real time    0.05
    SETDIJ:  cpu time    0.01: real time    0.01
     EDDAV:  cpu time    8.28: real time    8.28
       DOS:  cpu time    0.00: real time    0.00
    --------------------------------------------
      LOOP:  cpu time    8.34: real time    8.42

 eigenvalue-minimisations  :  6592
 total energy-change (2. order) : 0.7221613E+04  (-0.2049718E+05)
 number of electron     571.0000000 magnetization     120.0000000
 augmentation part      571.0000000 magnetization     120.0000000

 Free energy of the ion-electron system (eV)
  ---------------------------------------------------
  alpha Z        PSCENC =      2111.22712188
  Ewald energy   TEWEN  =    -28714.79437801
  -1/2 Hartree   DENC   =    -12072.21531140
  -exchange  EXHF       =         0.00000000
  -V(xc)+E(xc)   XCENC  =      1328.79035090
  PAW double counting   =     27278.96092844   -26863.34055171
  entropy T*S    EENTRO =        -0.00987724
  eigenvalues    EBANDS =      5705.29536051
  atomic energy  EATOM  =     38447.69961849
  ---------------------------------------------------
  free energy    TOTEN  =      7221.61326186 eV

  energy without entropy =     7221.62313911  energy(sigma->0) =     7221.61655428


--------------------------------------------------------------------------------------------------------




----------------------------------------- Iteration    1(   2)  ---------------------------------------


     EDDAV:  cpu time    8.39: real time    8.40
       DOS:  cpu time    0.00: real time    0.00
    --------------------------------------------
      LOOP:  cpu time    8.40: real time    8.60

 eigenvalue-minimisations  :  6696
 total energy-change (2. order) :-0.6876111E+04  (-0.6299837E+04)
 number of electron     571.0000000 magnetization     120.0000000
 augmentation part      571.0000000 magnetization     120.0000000

 Free energy of the ion-electron system (eV)
  ---------------------------------------------------
  alpha Z        PSCENC =      2111.22712188
  Ewald energy   TEWEN  =    -28714.79437801
  -1/2 Hartree   DENC   =    -12072.21531140
  -exchange  EXHF       =         0.00000000
  -V(xc)+E(xc)   XCENC  =      1328.79035090
  PAW double counting   =     27278.96092844   -26863.34055171
  entropy T*S    EENTRO =        -0.00323537
  eigenvalues    EBANDS =     -1170.82252796
  atomic energy  EATOM  =     38447.69961849
  ---------------------------------------------------
  free energy    TOTEN  =       345.50201526 eV

  energy without entropy =      345.50525063  energy(sigma->0) =      345.50309371


--------------------------------------------------------------------------------------------------------




----------------------------------------- Iteration    1(   3)  ---------------------------------------


     EDDAV:  cpu time    8.47: real time    8.47
       DOS:  cpu time    0.00: real time    0.00
    --------------------------------------------
      LOOP:  cpu time    8.47: real time    8.70

 eigenvalue-minimisations  :  6800
 total energy-change (2. order) :-0.1135617E+04  (-0.1030505E+04)
 number of electron     571.0000000 magnetization     120.0000000
 augmentation part      571.0000000 magnetization     120.0000000

 Free energy of the ion-electron system (eV)
  ---------------------------------------------------
  alpha Z        PSCENC =      2111.22712188
  Ewald energy   TEWEN  =    -28714.79437801
  -1/2 Hartree   DENC   =    -12072.21531140
  -exchange  EXHF       =         0.00000000
  -V(xc)+E(xc)   XCENC  =      1328.79035090
  PAW double counting   =     27278.96092844   -26863.34055171
  entropy T*S    EENTRO =         0.00302361
  eigenvalues    EBANDS =     -2306.44617066
  atomic energy  EATOM  =     38447.69961849
  ---------------------------------------------------
  free energy    TOTEN  =      -790.11536846 eV

  energy without entropy =     -790.11839207  energy(sigma->0) =     -790.11637633


--------------------------------------------------------------------------------------------------------




----------------------------------------- Iteration    1(   4)  ---------------------------------------


     EDDAV:  cpu time   10.42: real time   10.43
       DOS:  cpu time    0.00: real time    0.00
    --------------------------------------------
      LOOP:  cpu time   10.42: real time   10.65

 eigenvalue-minimisations  :  8904
 total energy-change (2. order) :-0.7623933E+02  (-0.7469595E+02)
 number of electron     571.0000000 magnetization     120.0000000
 augmentation part      571.0000000 magnetization     120.0000000

 Free energy of the ion-electron system (eV)
  ---------------------------------------------------
  alpha Z        PSCENC =      2111.22712188
  Ewald energy   TEWEN  =    -28714.79437801
  -1/2 Hartree   DENC   =    -12072.21531140
  -exchange  EXHF       =         0.00000000
  -V(xc)+E(xc)   XCENC  =      1328.79035090
  PAW double counting   =     27278.96092844   -26863.34055171
  entropy T*S    EENTRO =         0.00391502
  eigenvalues    EBANDS =     -2382.68639705
  atomic energy  EATOM  =     38447.69961849
  ---------------------------------------------------
  free energy    TOTEN  =      -866.35470343 eV

  energy without entropy =     -866.35861846  energy(sigma->0) =     -866.35600844


--------------------------------------------------------------------------------------------------------




----------------------------------------- Iteration    1(   5)  ---------------------------------------


     EDDAV:  cpu time   10.87: real time   10.87
       DOS:  cpu time    0.00: real time    0.00
    CHARGE:  cpu time    0.18: real time    0.18
    MIXING:  cpu time    0.00: real time    0.00
    --------------------------------------------
      LOOP:  cpu time   11.05: real time   11.16

 eigenvalue-minimisations  :  9376
 total energy-change (2. order) :-0.1863686E+01  (-0.1858454E+01)
 number of electron     571.0000381 magnetization     119.6099841
 augmentation part      161.5978845 magnetization      84.3117117

 Broyden mixing:
  rms(total) = 0.10319E+02    rms(broyden)= 0.10313E+02
  rms(prec ) = 0.10407E+02
  weight for this iteration     100.00

 Free energy of the ion-electron system (eV)
  ---------------------------------------------------
  alpha Z        PSCENC =      2111.22712188
  Ewald energy   TEWEN  =    -28714.79437801
  -1/2 Hartree   DENC   =    -12072.21531140
  -exchange  EXHF       =         0.00000000
  -V(xc)+E(xc)   XCENC  =      1328.79035090
  PAW double counting   =     27278.96092844   -26863.34055171
  entropy T*S    EENTRO =         0.00347548
  eigenvalues    EBANDS =     -2384.54964380
  atomic energy  EATOM  =     38447.69961849
  ---------------------------------------------------
  free energy    TOTEN  =      -868.21838972 eV

  energy without entropy =     -868.22186520  energy(sigma->0) =     -868.21954821


--------------------------------------------------------------------------------------------------------




----------------------------------------- Iteration    1(   6)  ---------------------------------------


    POTLOK:  cpu time    0.05: real time    0.05
    SETDIJ:  cpu time    0.01: real time    0.01
     EDDAV:  cpu time   11.08: real time   11.09
       DOS:  cpu time    0.00: real time    0.00
    CHARGE:  cpu time    0.17: real time    0.17
    MIXING:  cpu time    0.00: real time    0.00
    --------------------------------------------
      LOOP:  cpu time   11.32: real time   11.42

 eigenvalue-minimisations  :  9616
 total energy-change (2. order) : 0.1267529E+03  (-0.1369405E+03)
 number of electron     571.0000067 magnetization     119.3686969
 augmentation part      192.2186861 magnetization      93.3384267

 Broyden mixing:
  rms(total) = 0.12426E+02    rms(broyden)= 0.12421E+02
  rms(prec ) = 0.12561E+02
  weight for this iteration     100.00

 eigenvalues of (default mixing * dielectric matrix)
  average eigenvalue GAMMA=   0.4474
  0.4474

 Free energy of the ion-electron system (eV)
  ---------------------------------------------------
  alpha Z        PSCENC =      2111.22712188
  Ewald energy   TEWEN  =    -28714.79437801
  -1/2 Hartree   DENC   =    -12397.83413128
  -exchange  EXHF       =         0.00000000
  -V(xc)+E(xc)   XCENC  =      1406.37650854
  PAW double counting   =     29474.58619660   -29023.83939980
  entropy T*S    EENTRO =         0.05697252
  eigenvalues    EBANDS =     -2044.94402522
  atomic energy  EATOM  =     38447.69961849
  ---------------------------------------------------
  free energy    TOTEN  =      -741.46551628 eV

  energy without entropy =     -741.52248880  energy(sigma->0) =     -741.48450712


--------------------------------------------------------------------------------------------------------




----------------------------------------- Iteration    1(   7)  ---------------------------------------


    POTLOK:  cpu time    0.05: real time    0.05
    SETDIJ:  cpu time    0.01: real time    0.01
     EDDAV:  cpu time   10.44: real time   10.45
       DOS:  cpu time    0.00: real time    0.00
    CHARGE:  cpu time    0.17: real time    0.17
    MIXING:  cpu time    0.00: real time    0.00
    --------------------------------------------
      LOOP:  cpu time   10.68: real time   10.93

 eigenvalue-minimisations  :  8936
 total energy-change (2. order) : 0.9318957E+02  (-0.4508216E+02)
 number of electron     571.0000285 magnetization     119.2169475
 augmentation part      162.0065072 magnetization      89.4850075

 Broyden mixing:
  rms(total) = 0.46803E+01    rms(broyden)= 0.46740E+01
  rms(prec ) = 0.48311E+01
  weight for this iteration     100.00

 eigenvalues of (default mixing * dielectric matrix)
  average eigenvalue GAMMA=   0.3996
  0.5489  0.2504

 Free energy of the ion-electron system (eV)
  ---------------------------------------------------
  alpha Z        PSCENC =      2111.22712188
  Ewald energy   TEWEN  =    -28714.79437801
  -1/2 Hartree   DENC   =    -12318.05525405
  -exchange  EXHF       =         0.00000000
  -V(xc)+E(xc)   XCENC  =      1365.71419942
  PAW double counting   =     29680.71114370   -29324.59666457
  entropy T*S    EENTRO =        -0.01846197
  eigenvalues    EBANDS =     -1896.16327122
  atomic energy  EATOM  =     38447.69961849
  ---------------------------------------------------
  free energy    TOTEN  =      -648.27594634 eV

  energy without entropy =     -648.25748437  energy(sigma->0) =     -648.26979235


--------------------------------------------------------------------------------------------------------




----------------------------------------- Iteration    1(   8)  ---------------------------------------


    POTLOK:  cpu time    0.05: real time    0.05
    SETDIJ:  cpu time    0.01: real time    0.01
     EDDAV:  cpu time   10.71: real time   10.72
       DOS:  cpu time    0.00: real time    0.00
    CHARGE:  cpu time    0.17: real time    0.17
    MIXING:  cpu time    0.00: real time    0.00
    --------------------------------------------
      LOOP:  cpu time   10.95: real time   11.06

 eigenvalue-minimisations  :  9232
 total energy-change (2. order) : 0.1008852E+02  (-0.7939456E+01)
 number of electron     571.0000253 magnetization     119.0762503
 augmentation part      163.7999350 magnetization      89.6990441

 Broyden mixing:
  rms(total) = 0.36008E+01    rms(broyden)= 0.36002E+01
  rms(prec ) = 0.36282E+01
  weight for this iteration     100.00

 eigenvalues of (default mixing * dielectric matrix)
  average eigenvalue GAMMA=   0.3995
  0.6030  0.2978  0.2978

 Free energy of the ion-electron system (eV)
  ---------------------------------------------------
  alpha Z        PSCENC =      2111.22712188
  Ewald energy   TEWEN  =    -28714.79437801
  -1/2 Hartree   DENC   =    -12288.69995807
  -exchange  EXHF       =         0.00000000
  -V(xc)+E(xc)   XCENC  =      1371.22048867
  PAW double counting   =     29916.53213464   -29563.28466205
  entropy T*S    EENTRO =         0.03537540
  eigenvalues    EBANDS =     -1918.12316889
  atomic energy  EATOM  =     38447.69961849
  ---------------------------------------------------
  free energy    TOTEN  =      -638.18742795 eV

  energy without entropy =     -638.22280335  energy(sigma->0) =     -638.19921975


--------------------------------------------------------------------------------------------------------




----------------------------------------- Iteration    1(   9)  ---------------------------------------


    POTLOK:  cpu time    0.05: real time    0.05
    SETDIJ:  cpu time    0.01: real time    0.01
     EDDAV:  cpu time   10.78: real time   10.79
       DOS:  cpu time    0.00: real time    0.00
    CHARGE:  cpu time    0.17: real time    0.17
    MIXING:  cpu time    0.00: real time    0.00
    --------------------------------------------
      LOOP:  cpu time   11.02: real time   11.12

 eigenvalue-minimisations  :  9304
 total energy-change (2. order) : 0.7993127E+01  (-0.9543755E+00)
 number of electron     571.0000250 magnetization     118.8696727
 augmentation part      164.9726806 magnetization      90.2300894

 Broyden mixing:
  rms(total) = 0.27683E+01    rms(broyden)= 0.27681E+01
  rms(prec ) = 0.28055E+01
  weight for this iteration     100.00

 eigenvalues of (default mixing * dielectric matrix)
  average eigenvalue GAMMA=   0.4469
  0.5188  0.5188  0.4962  0.2537

 Free energy of the ion-electron system (eV)
  ---------------------------------------------------
  alpha Z        PSCENC =      2111.22712188
  Ewald energy   TEWEN  =    -28714.79437801
  -1/2 Hartree   DENC   =    -12279.35136016
  -exchange  EXHF       =         0.00000000
  -V(xc)+E(xc)   XCENC  =      1376.36727361
  PAW double counting   =     30161.11994419   -29809.18492535
  entropy T*S    EENTRO =         0.00007211
  eigenvalues    EBANDS =     -1923.27766767
  atomic energy  EATOM  =     38447.69961849
  ---------------------------------------------------
  free energy    TOTEN  =      -630.19430090 eV

  energy without entropy =     -630.19437301  energy(sigma->0) =     -630.19432494


--------------------------------------------------------------------------------------------------------




----------------------------------------- Iteration    1(  10)  ---------------------------------------


    POTLOK:  cpu time    0.05: real time    0.05
    SETDIJ:  cpu time    0.01: real time    0.01
     EDDAV:  cpu time   10.82: real time   10.83
       DOS:  cpu time    0.00: real time    0.00
    CHARGE:  cpu time    0.17: real time    0.17
    MIXING:  cpu time    0.00: real time    0.00
    --------------------------------------------
      LOOP:  cpu time   11.06: real time   11.16

 eigenvalue-minimisations  :  9344
 total energy-change (2. order) : 0.4664444E+01  (-0.4103950E+00)
 number of electron     571.0000241 magnetization     118.2204793
 augmentation part      166.0266608 magnetization      90.2422499

 Broyden mixing:
  rms(total) = 0.21753E+01    rms(broyden)= 0.21751E+01
  rms(prec ) = 0.21932E+01
  weight for this iteration     100.00

 eigenvalues of (default mixing * dielectric matrix)
  average eigenvalue GAMMA=   0.6367
  1.0767  1.0767  0.4256  0.3024  0.3024

 Free energy of the ion-electron system (eV)
  ---------------------------------------------------
  alpha Z        PSCENC =      2111.22712188
  Ewald energy   TEWEN  =    -28714.79437801
  -1/2 Hartree   DENC   =    -12276.13833649
  -exchange  EXHF       =         0.00000000
  -V(xc)+E(xc)   XCENC  =      1382.89686676
  PAW double counting   =     30451.15218690   -30100.76187819
  entropy T*S    EENTRO =         0.03265402
  eigenvalues    EBANDS =     -1926.84371203
  atomic energy  EATOM  =     38447.69961849
  ---------------------------------------------------
  free energy    TOTEN  =      -625.52985666 eV

  energy without entropy =     -625.56251069  energy(sigma->0) =     -625.54074134


--------------------------------------------------------------------------------------------------------




----------------------------------------- Iteration    1(  11)  ---------------------------------------


    POTLOK:  cpu time    0.05: real time    0.05
    SETDIJ:  cpu time    0.01: real time    0.01
     EDDAV:  cpu time   10.65: real time   10.65
       DOS:  cpu time    0.00: real time    0.00
    CHARGE:  cpu time    0.18: real time    0.18
    MIXING:  cpu time    0.00: real time    0.00
    --------------------------------------------
      LOOP:  cpu time   10.88: real time   10.97

 eigenvalue-minimisations  :  9168
 total energy-change (2. order) : 0.7235489E+01  (-0.1542784E+01)
 number of electron     571.0000231 magnetization     117.8615050
 augmentation part      169.2757807 magnetization      91.7686582

 Broyden mixing:
  rms(total) = 0.14808E+01    rms(broyden)= 0.14790E+01
  rms(prec ) = 0.16333E+01
  weight for this iteration     100.00

 eigenvalues of (default mixing * dielectric matrix)
  average eigenvalue GAMMA=   0.6840
  1.3267  1.3267  0.3958  0.3958  0.3827  0.2760

 Free energy of the ion-electron system (eV)
  ---------------------------------------------------
  alpha Z        PSCENC =      2111.22712188
  Ewald energy   TEWEN  =    -28714.79437801
  -1/2 Hartree   DENC   =    -12260.49767247
  -exchange  EXHF       =         0.00000000
  -V(xc)+E(xc)   XCENC  =      1401.58627220
  PAW double counting   =     31233.09565417   -30887.54479171
  entropy T*S    EENTRO =        -0.00403612
  eigenvalues    EBANDS =     -1949.06215614
  atomic energy  EATOM  =     38447.69961849
  ---------------------------------------------------
  free energy    TOTEN  =      -618.29436771 eV

  energy without entropy =     -618.29033159  energy(sigma->0) =     -618.29302234


--------------------------------------------------------------------------------------------------------




----------------------------------------- Iteration    1(  12)  ---------------------------------------


    POTLOK:  cpu time    0.05: real time    0.05
    SETDIJ:  cpu time    0.01: real time    0.01
     EDDAV:  cpu time   10.67: real time   10.67
       DOS:  cpu time    0.00: real time    0.00
    CHARGE:  cpu time    0.19: real time    0.19
    MIXING:  cpu time    0.00: real time    0.00
    --------------------------------------------
      LOOP:  cpu time   10.92: real time   11.02

 eigenvalue-minimisations  :  9216
 total energy-change (2. order) : 0.5612478E+00  (-0.1108431E+01)
 number of electron     571.0000222 magnetization     117.4948333
 augmentation part      170.1150957 magnetization      91.9872934

 Broyden mixing:
  rms(total) = 0.14463E+01    rms(broyden)= 0.14457E+01
  rms(prec ) = 0.14783E+01
  weight for this iteration     100.00

 eigenvalues of (default mixing * dielectric matrix)
  average eigenvalue GAMMA=   0.7181
  1.5524  1.5524  0.5172  0.5172  0.3477  0.3062  0.2336

 Free energy of the ion-electron system (eV)
  ---------------------------------------------------
  alpha Z        PSCENC =      2111.22712188
  Ewald energy   TEWEN  =    -28714.79437801
  -1/2 Hartree   DENC   =    -12261.09597737
  -exchange  EXHF       =         0.00000000
  -V(xc)+E(xc)   XCENC  =      1409.19263078
  PAW double counting   =     31541.82813026   -31200.06182627
  entropy T*S    EENTRO =         0.06256182
  eigenvalues    EBANDS =     -1951.79100147
  atomic energy  EATOM  =     38447.69961849
  ---------------------------------------------------
  free energy    TOTEN  =      -617.73311989 eV

  energy without entropy =     -617.79568171  energy(sigma->0) =     -617.75397383


--------------------------------------------------------------------------------------------------------




----------------------------------------- Iteration    1(  13)  ---------------------------------------


    POTLOK:  cpu time    0.05: real time    0.05
    SETDIJ:  cpu time    0.01: real time    0.01
     EDDAV:  cpu time   11.03: real time   11.04
       DOS:  cpu time    0.00: real time    0.00
    CHARGE:  cpu time    0.17: real time    0.17
    MIXING:  cpu time    0.00: real time    0.00
    --------------------------------------------
      LOOP:  cpu time   11.27: real time   11.47

 eigenvalue-minimisations  :  9592
 total energy-change (2. order) :-0.8184166E+00  (-0.3369520E+00)
 number of electron     571.0000223 magnetization     117.2369108
 augmentation part      170.3162604 magnetization      92.5894157

 Broyden mixing:
  rms(total) = 0.12656E+01    rms(broyden)= 0.12653E+01
  rms(prec ) = 0.12884E+01
  weight for this iteration     100.00

 eigenvalues of (default mixing * dielectric matrix)
  average eigenvalue GAMMA=   0.7069
  1.6355  1.6355  0.5517  0.5517  0.3760  0.3311  0.3311  0.2431

 Free energy of the ion-electron system (eV)
  ---------------------------------------------------
  alpha Z        PSCENC =      2111.22712188
  Ewald energy   TEWEN  =    -28714.79437801
  -1/2 Hartree   DENC   =    -12255.06949829
  -exchange  EXHF       =         0.00000000
  -V(xc)+E(xc)   XCENC  =      1413.77369366
  PAW double counting   =     31731.78043276   -31394.25990762
  entropy T*S    EENTRO =         0.02361726
  eigenvalues    EBANDS =     -1958.93223660
  atomic energy  EATOM  =     38447.69961849
  ---------------------------------------------------
  free energy    TOTEN  =      -618.55153648 eV

  energy without entropy =     -618.57515374  energy(sigma->0) =     -618.55940890


--------------------------------------------------------------------------------------------------------




----------------------------------------- Iteration    1(  14)  ---------------------------------------


    POTLOK:  cpu time    0.05: real time    0.05
    SETDIJ:  cpu time    0.01: real time    0.01
     EDDAV:  cpu time   10.74: real time   10.75
       DOS:  cpu time    0.00: real time    0.00
    CHARGE:  cpu time    0.17: real time    0.17
    MIXING:  cpu time    0.00: real time    0.00
    --------------------------------------------
      LOOP:  cpu time   10.98: real time   11.09

 eigenvalue-minimisations  :  9272
 total energy-change (2. order) :-0.1374560E+00  (-0.1858066E+00)
 number of electron     571.0000228 magnetization     117.0975113
 augmentation part      170.3001547 magnetization      92.4618715

 Broyden mixing:
  rms(total) = 0.11343E+01    rms(broyden)= 0.11341E+01
  rms(prec ) = 0.11725E+01
  weight for this iteration     100.00

 eigenvalues of (default mixing * dielectric matrix)
  average eigenvalue GAMMA=   0.6907
  1.7026  1.7026  0.5914  0.5914  0.3683  0.3683  0.3396  0.3272  0.2249

 Free energy of the ion-electron system (eV)
  ---------------------------------------------------
  alpha Z        PSCENC =      2111.22712188
  Ewald energy   TEWEN  =    -28714.79437801
  -1/2 Hartree   DENC   =    -12252.40172255
  -exchange  EXHF       =         0.00000000
  -V(xc)+E(xc)   XCENC  =      1414.99272976
  PAW double counting   =     31795.82915081   -31461.34662935
  entropy T*S    EENTRO =         0.07169685
  eigenvalues    EBANDS =     -1959.96658032
  atomic energy  EATOM  =     38447.69961849
  ---------------------------------------------------
  free energy    TOTEN  =      -618.68899244 eV

  energy without entropy =     -618.76068929  energy(sigma->0) =     -618.71289139


--------------------------------------------------------------------------------------------------------




----------------------------------------- Iteration    1(  15)  ---------------------------------------


    POTLOK:  cpu time    0.05: real time    0.05
    SETDIJ:  cpu time    0.01: real time    0.01
     EDDAV:  cpu time   10.33: real time   10.34
       DOS:  cpu time    0.00: real time    0.00
    CHARGE:  cpu time    0.17: real time    0.17
    MIXING:  cpu time    0.00: real time    0.00
    --------------------------------------------
      LOOP:  cpu time   10.57: real time   10.67

 eigenvalue-minimisations  :  8832
 total energy-change (2. order) :-0.2450954E+00  (-0.5078028E-01)
 number of electron     571.0000228 magnetization     116.8826666
 augmentation part      170.1111246 magnetization      92.3929187

 Broyden mixing:
  rms(total) = 0.10316E+01    rms(broyden)= 0.10316E+01
  rms(prec ) = 0.10370E+01
  weight for this iteration     100.00

 eigenvalues of (default mixing * dielectric matrix)
  average eigenvalue GAMMA=   0.7050
  1.7118  1.7118  0.7205  0.7205  0.4504  0.4504  0.4268  0.3189  0.3189  0.2202

 Free energy of the ion-electron system (eV)
  ---------------------------------------------------
  alpha Z        PSCENC =      2111.22712188
  Ewald energy   TEWEN  =    -28714.79437801
  -1/2 Hartree   DENC   =    -12249.29002723
  -exchange  EXHF       =         0.00000000
  -V(xc)+E(xc)   XCENC  =      1414.98589130
  PAW double counting   =     31798.40858139   -31465.22302921
  entropy T*S    EENTRO =         0.05963918
  eigenvalues    EBANDS =     -1962.00750561
  atomic energy  EATOM  =     38447.69961849
  ---------------------------------------------------
  free energy    TOTEN  =      -618.93408782 eV

  energy without entropy =     -618.99372701  energy(sigma->0) =     -618.95396755


--------------------------------------------------------------------------------------------------------




----------------------------------------- Iteration    1(  16)  ---------------------------------------


    POTLOK:  cpu time    0.05: real time    0.05
    SETDIJ:  cpu time    0.01: real time    0.01
     EDDAV:  cpu time   10.00: real time   10.00
       DOS:  cpu time    0.00: real time    0.00
    CHARGE:  cpu time    0.17: real time    0.17
    MIXING:  cpu time    0.00: real time    0.00
    --------------------------------------------
      LOOP:  cpu time   10.23: real time   10.33

 eigenvalue-minimisations  :  8480
 total energy-change (2. order) :-0.2744665E+00  (-0.1804385E-01)
 number of electron     571.0000230 magnetization     116.4761950
 augmentation part      170.1182070 magnetization      91.9833627

 Broyden mixing:
  rms(total) = 0.10108E+01    rms(broyden)= 0.10108E+01
  rms(prec ) = 0.10185E+01
  weight for this iteration     100.00

 eigenvalues of (default mixing * dielectric matrix)
  average eigenvalue GAMMA=   0.7352
  1.7270  1.7270  0.9409  0.9409  0.5702  0.5702  0.3665  0.3665  0.3302  0.3302
  0.2175

 Free energy of the ion-electron system (eV)
  ---------------------------------------------------
  alpha Z        PSCENC =      2111.22712188
  Ewald energy   TEWEN  =    -28714.79437801
  -1/2 Hartree   DENC   =    -12246.80231108
  -exchange  EXHF       =         0.00000000
  -V(xc)+E(xc)   XCENC  =      1414.72627832
  PAW double counting   =     31809.16900518   -31477.36990958
  entropy T*S    EENTRO =         0.06911782
  eigenvalues    EBANDS =     -1963.13309739
  atomic energy  EATOM  =     38447.69961849
  ---------------------------------------------------
  free energy    TOTEN  =      -619.20855436 eV

  energy without entropy =     -619.27767218  energy(sigma->0) =     -619.23159363


--------------------------------------------------------------------------------------------------------




----------------------------------------- Iteration    1(  17)  ---------------------------------------


    POTLOK:  cpu time    0.05: real time    0.05
    SETDIJ:  cpu time    0.01: real time    0.01
     EDDAV:  cpu time   10.25: real time   10.26
       DOS:  cpu time    0.00: real time    0.00
    CHARGE:  cpu time    0.17: real time    0.17
    MIXING:  cpu time    0.00: real time    0.00
    --------------------------------------------
      LOOP:  cpu time   10.49: real time   10.59

 eigenvalue-minimisations  :  8712
 total energy-change (2. order) :-0.6395199E+00  (-0.2031770E-01)
 number of electron     571.0000229 magnetization     115.6535541
 augmentation part      170.0086562 magnetization      91.2021053

 Broyden mixing:
  rms(total) = 0.96557E+00    rms(broyden)= 0.96556E+00
  rms(prec ) = 0.96784E+00
  weight for this iteration     100.00

 eigenvalues of (default mixing * dielectric matrix)
  average eigenvalue GAMMA=   0.7584
  2.1347  1.2691  1.2691  1.0846  0.6476  0.6476  0.4003  0.4003  0.3828  0.3236
  0.3236  0.2175

 Free energy of the ion-electron system (eV)
  ---------------------------------------------------
  alpha Z        PSCENC =      2111.22712188
  Ewald energy   TEWEN  =    -28714.79437801
  -1/2 Hartree   DENC   =    -12244.08951997
  -exchange  EXHF       =         0.00000000
  -V(xc)+E(xc)   XCENC  =      1414.24933460
  PAW double counting   =     31814.25083017   -31484.32353087
  entropy T*S    EENTRO =         0.06954285
  eigenvalues    EBANDS =     -1964.13709344
  atomic energy  EATOM  =     38447.69961849
  ---------------------------------------------------
  free energy    TOTEN  =      -619.84807428 eV

  energy without entropy =     -619.91761714  energy(sigma->0) =     -619.87125524


--------------------------------------------------------------------------------------------------------




----------------------------------------- Iteration    1(  18)  ---------------------------------------


    POTLOK:  cpu time    0.05: real time    0.05
    SETDIJ:  cpu time    0.01: real time    0.01
     EDDAV:  cpu time   10.38: real time   10.38
       DOS:  cpu time    0.00: real time    0.00
    CHARGE:  cpu time    0.17: real time    0.17
    MIXING:  cpu time    0.00: real time    0.00
    --------------------------------------------
      LOOP:  cpu time   10.62: real time   10.75

 eigenvalue-minimisations  :  8888
 total energy-change (2. order) :-0.1242354E+01  (-0.2578665E-01)
 number of electron     571.0000230 magnetization     113.8150722
 augmentation part      169.9494592 magnetization      89.4237523

 Broyden mixing:
  rms(total) = 0.92749E+00    rms(broyden)= 0.92747E+00
  rms(prec ) = 0.93185E+00
  weight for this iteration     100.00

 eigenvalues of (default mixing * dielectric matrix)
  average eigenvalue GAMMA=   0.7976
  2.3957  1.5412  1.5412  0.9075  0.7192  0.7192  0.4733  0.4733  0.3660  0.3660
  0.3241  0.3241  0.2175

 Free energy of the ion-electron system (eV)
  ---------------------------------------------------
  alpha Z        PSCENC =      2111.22712188
  Ewald energy   TEWEN  =    -28714.79437801
  -1/2 Hartree   DENC   =    -12241.29307411
  -exchange  EXHF       =         0.00000000
  -V(xc)+E(xc)   XCENC  =      1413.65950957
  PAW double counting   =     31833.72901689   -31506.52037091
  entropy T*S    EENTRO =         0.06997725
  eigenvalues    EBANDS =     -1964.86784887
  atomic energy  EATOM  =     38447.69961849
  ---------------------------------------------------
  free energy    TOTEN  =      -621.09042782 eV

  energy without entropy =     -621.16040507  energy(sigma->0) =     -621.11375357


--------------------------------------------------------------------------------------------------------




----------------------------------------- Iteration    1(  19)  ---------------------------------------


    POTLOK:  cpu time    0.05: real time    0.05
    SETDIJ:  cpu time    0.03: real time    0.03
     EDDAV:  cpu time   10.22: real time   10.23
       DOS:  cpu time    0.00: real time    0.00
    CHARGE:  cpu time    0.17: real time    0.17
    MIXING:  cpu time    0.00: real time    0.00
    --------------------------------------------
      LOOP:  cpu time   10.47: real time   10.58

 eigenvalue-minimisations  :  8680
 total energy-change (2. order) :-0.3043089E+01  (-0.8139121E-01)
 number of electron     571.0000230 magnetization     110.7468577
 augmentation part      169.7355785 magnetization      86.4179169

 Broyden mixing:
  rms(total) = 0.84774E+00    rms(broyden)= 0.84770E+00
  rms(prec ) = 0.84995E+00
  weight for this iteration     100.00

 eigenvalues of (default mixing * dielectric matrix)
  average eigenvalue GAMMA=   0.8433
  2.6864  1.7667  1.7667  0.8004  0.8004  0.6549  0.6549  0.6594  0.3792  0.3792
  0.3916  0.3247  0.3247  0.2175

 Free energy of the ion-electron system (eV)
  ---------------------------------------------------
  alpha Z        PSCENC =      2111.22712188
  Ewald energy   TEWEN  =    -28714.79437801
  -1/2 Hartree   DENC   =    -12235.00143792
  -exchange  EXHF       =         0.00000000
  -V(xc)+E(xc)   XCENC  =      1411.37837376
  PAW double counting   =     31837.27617917   -31513.64410012
  entropy T*S    EENTRO =         0.07188806
  eigenvalues    EBANDS =     -1968.34678175
  atomic energy  EATOM  =     38447.69961849
  ---------------------------------------------------
  free energy    TOTEN  =      -624.13351643 eV

  energy without entropy =     -624.20540449  energy(sigma->0) =     -624.15747912


--------------------------------------------------------------------------------------------------------




----------------------------------------- Iteration    1(  20)  ---------------------------------------


    POTLOK:  cpu time    0.05: real time    0.05
    SETDIJ:  cpu time    0.01: real time    0.01
     EDDAV:  cpu time   10.16: real time   10.17
       DOS:  cpu time    0.00: real time    0.00
    CHARGE:  cpu time    0.17: real time    0.17
    MIXING:  cpu time    0.00: real time    0.00
    --------------------------------------------
      LOOP:  cpu time   10.40: real time   10.51

 eigenvalue-minimisations  :  8664
 total energy-change (2. order) :-0.5042417E+01  (-0.2037176E+00)
 number of electron     571.0000232 magnetization     105.3725796
 augmentation part      169.4730829 magnetization      81.0944633

 Broyden mixing:
  rms(total) = 0.76276E+00    rms(broyden)= 0.76270E+00
  rms(prec ) = 0.76782E+00
  weight for this iteration     100.00

 eigenvalues of (default mixing * dielectric matrix)
  average eigenvalue GAMMA=   0.9189
  3.3920  1.9367  1.9367  0.9294  0.9294  0.7123  0.7123  0.6900  0.4674  0.4674
  0.3724  0.3724  0.3241  0.3241  0.2175

 Free energy of the ion-electron system (eV)
  ---------------------------------------------------
  alpha Z        PSCENC =      2111.22712188
  Ewald energy   TEWEN  =    -28714.79437801
  -1/2 Hartree   DENC   =    -12225.71517483
  -exchange  EXHF       =         0.00000000
  -V(xc)+E(xc)   XCENC  =      1406.46625311
  PAW double counting   =     31804.73835539   -31483.40046576
  entropy T*S    EENTRO =         0.07816742
  eigenvalues    EBANDS =     -1975.47543097
  atomic energy  EATOM  =     38447.69961849
  ---------------------------------------------------
  free energy    TOTEN  =      -629.17593328 eV

  energy without entropy =     -629.25410071  energy(sigma->0) =     -629.20198909


--------------------------------------------------------------------------------------------------------




----------------------------------------- Iteration    1(  21)  ---------------------------------------


    POTLOK:  cpu time    0.05: real time    0.05
    SETDIJ:  cpu time    0.01: real time    0.01
     EDDAV:  cpu time   10.12: real time   10.13
       DOS:  cpu time    0.00: real time    0.00
    CHARGE:  cpu time    0.17: real time    0.17
    MIXING:  cpu time    0.00: real time    0.00
    --------------------------------------------
      LOOP:  cpu time   10.36: real time   10.47

 eigenvalue-minimisations  :  8616
 total energy-change (2. order) :-0.7247528E+01  (-0.6113037E+00)
 number of electron     571.0000234 magnetization      98.4115235
 augmentation part      169.1665323 magnetization      74.2975436

 Broyden mixing:
  rms(total) = 0.61716E+00    rms(broyden)= 0.61707E+00
  rms(prec ) = 0.62370E+00
  weight for this iteration     100.00

 eigenvalues of (default mixing * dielectric matrix)
  average eigenvalue GAMMA=   1.0923
  5.8888  2.0133  2.0133  1.0229  1.0229  0.7277  0.7277  0.7570  0.7570  0.4944
  0.4363  0.3748  0.3748  0.3244  0.3244  0.2175

 Free energy of the ion-electron system (eV)
  ---------------------------------------------------
  alpha Z        PSCENC =      2111.22712188
  Ewald energy   TEWEN  =    -28714.79437801
  -1/2 Hartree   DENC   =    -12207.48738802
  -exchange  EXHF       =         0.00000000
  -V(xc)+E(xc)   XCENC  =      1398.89051877
  PAW double counting   =     31708.50061560   -31386.51203815
  entropy T*S    EENTRO =         0.08275002
  eigenvalues    EBANDS =     -1994.03028164
  atomic energy  EATOM  =     38447.69961849
  ---------------------------------------------------
  free energy    TOTEN  =      -636.42346106 eV

  energy without entropy =     -636.50621108  energy(sigma->0) =     -636.45104440


--------------------------------------------------------------------------------------------------------




----------------------------------------- Iteration    1(  22)  ---------------------------------------


    POTLOK:  cpu time    0.05: real time    0.05
    SETDIJ:  cpu time    0.01: real time    0.01
     EDDAV:  cpu time   10.23: real time   10.23
       DOS:  cpu time    0.00: real time    0.00
    CHARGE:  cpu time    0.17: real time    0.17
    MIXING:  cpu time    0.00: real time    0.00
    --------------------------------------------
      LOOP:  cpu time   10.47: real time   10.68

 eigenvalue-minimisations  :  8712
 total energy-change (2. order) :-0.3968203E+01  (-0.4947325E+00)
 number of electron     571.0000237 magnetization      94.5307492
 augmentation part      169.1122510 magnetization      70.6918601

 Broyden mixing:
  rms(total) = 0.38782E+00    rms(broyden)= 0.38768E+00
  rms(prec ) = 0.39160E+00
  weight for this iteration     100.00

 eigenvalues of (default mixing * dielectric matrix)
  average eigenvalue GAMMA=   1.4480
 11.8396  2.0416  2.0416  1.2870  1.2870  0.8471  0.8471  0.6736  0.6736  0.5161
  0.5161  0.4307  0.3744  0.3744  0.3243  0.3243  0.2175

 Free energy of the ion-electron system (eV)
  ---------------------------------------------------
  alpha Z        PSCENC =      2111.22712188
  Ewald energy   TEWEN  =    -28714.79437801
  -1/2 Hartree   DENC   =    -12187.31256987
  -exchange  EXHF       =         0.00000000
  -V(xc)+E(xc)   XCENC  =      1393.66958591
  PAW double counting   =     31609.23274833   -31282.95764161
  entropy T*S    EENTRO =         0.08135468
  eigenvalues    EBANDS =     -2017.23750399
  atomic energy  EATOM  =     38447.69961849
  ---------------------------------------------------
  free energy    TOTEN  =      -640.39166420 eV

  energy without entropy =     -640.47301888  energy(sigma->0) =     -640.41878242


--------------------------------------------------------------------------------------------------------




----------------------------------------- Iteration    1(  23)  ---------------------------------------


    POTLOK:  cpu time    0.05: real time    0.05
    SETDIJ:  cpu time    0.01: real time    0.01
     EDDAV:  cpu time   10.37: real time   10.37
       DOS:  cpu time    0.00: real time    0.00
    CHARGE:  cpu time    0.17: real time    0.17
    MIXING:  cpu time    0.00: real time    0.00
    --------------------------------------------
      LOOP:  cpu time   10.61: real time   10.91

 eigenvalue-minimisations  :  8872
 total energy-change (2. order) :-0.3575165E+00  (-0.6236233E-01)
 number of electron     571.0000236 magnetization      92.6872528
 augmentation part      169.1803565 magnetization      69.0223049

 Broyden mixing:
  rms(total) = 0.28804E+00    rms(broyden)= 0.28786E+00
  rms(prec ) = 0.29384E+00
  weight for this iteration     100.00

 eigenvalues of (default mixing * dielectric matrix)
  average eigenvalue GAMMA=   2.0230
 22.4529  2.1137  2.1137  1.4236  1.4236  0.9307  0.9307  0.6865  0.6865  0.5716
  0.5716  0.2175  0.3243  0.3243  0.3745  0.3745  0.4472  0.4472

 Free energy of the ion-electron system (eV)
  ---------------------------------------------------
  alpha Z        PSCENC =      2111.22712188
  Ewald energy   TEWEN  =    -28714.79437801
  -1/2 Hartree   DENC   =    -12184.09424605
  -exchange  EXHF       =         0.00000000
  -V(xc)+E(xc)   XCENC  =      1392.03366258
  PAW double counting   =     31573.44166909   -31244.42259668
  entropy T*S    EENTRO =         0.06474988
  eigenvalues    EBANDS =     -2021.90478185
  atomic energy  EATOM  =     38447.69961849
  ---------------------------------------------------
  free energy    TOTEN  =      -640.74918066 eV

  energy without entropy =     -640.81393054  energy(sigma->0) =     -640.77076396


--------------------------------------------------------------------------------------------------------




----------------------------------------- Iteration    1(  24)  ---------------------------------------


    POTLOK:  cpu time    0.05: real time    0.05
    SETDIJ:  cpu time    0.01: real time    0.01
     EDDAV:  cpu time   10.55: real time   10.55
       DOS:  cpu time    0.00: real time    0.00
    CHARGE:  cpu time    0.17: real time    0.17
    MIXING:  cpu time    0.00: real time    0.00
    --------------------------------------------
      LOOP:  cpu time   10.78: real time   10.90

 eigenvalue-minimisations  :  9080
 total energy-change (2. order) :-0.1100262E+00  (-0.1899056E-01)
 number of electron     571.0000236 magnetization      91.7400378
 augmentation part      169.1474391 magnetization      68.1765374

 Broyden mixing:
  rms(total) = 0.16490E+00    rms(broyden)= 0.16485E+00
  rms(prec ) = 0.16782E+00
  weight for this iteration     100.00

 eigenvalues of (default mixing * dielectric matrix)
  average eigenvalue GAMMA=   3.0344
 42.4969  2.3103  2.3103  1.4227  1.4227  0.9621  0.9621  0.7027  0.7027  0.6693
  0.6693  0.2175  0.3243  0.3243  0.3744  0.3744  0.4888  0.4888  0.4308

 Free energy of the ion-electron system (eV)
  ---------------------------------------------------
  alpha Z        PSCENC =      2111.22712188
  Ewald energy   TEWEN  =    -28714.79437801
  -1/2 Hartree   DENC   =    -12191.12199467
  -exchange  EXHF       =         0.00000000
  -V(xc)+E(xc)   XCENC  =      1391.89040749
  PAW double counting   =     31574.59299291   -31244.86661936
  entropy T*S    EENTRO =         0.07815610
  eigenvalues    EBANDS =     -2015.56451173
  atomic energy  EATOM  =     38447.69961849
  ---------------------------------------------------
  free energy    TOTEN  =      -640.85920691 eV

  energy without entropy =     -640.93736301  energy(sigma->0) =     -640.88525894


--------------------------------------------------------------------------------------------------------




----------------------------------------- Iteration    1(  25)  ---------------------------------------


    POTLOK:  cpu time    0.05: real time    0.05
    SETDIJ:  cpu time    0.01: real time    0.01
     EDDAV:  cpu time   10.77: real time   10.79
       DOS:  cpu time    0.00: real time    0.00
    CHARGE:  cpu time    0.17: real time    0.17
    MIXING:  cpu time    0.00: real time    0.00
    --------------------------------------------
      LOOP:  cpu time   11.01: real time   11.26

 eigenvalue-minimisations  :  9320
 total energy-change (2. order) :-0.3021285E-01  (-0.1018432E-01)
 number of electron     571.0000235 magnetization      91.4184425
 augmentation part      169.1054411 magnetization      67.9116763

 Broyden mixing:
  rms(total) = 0.11558E+00    rms(broyden)= 0.11554E+00
  rms(prec ) = 0.11823E+00
  weight for this iteration     100.00

 eigenvalues of (default mixing * dielectric matrix)
  average eigenvalue GAMMA=   3.6423
 56.4924  2.4101  2.4101  1.5402  1.5402  0.9374  0.9374  0.9407  0.6843  0.6843
  0.6106  0.6106  0.2175  0.3243  0.3243  0.3745  0.3745  0.5380  0.4402  0.4543

 Free energy of the ion-electron system (eV)
  ---------------------------------------------------
  alpha Z        PSCENC =      2111.22712188
  Ewald energy   TEWEN  =    -28714.79437801
  -1/2 Hartree   DENC   =    -12196.86885917
  -exchange  EXHF       =         0.00000000
  -V(xc)+E(xc)   XCENC  =      1392.11699140
  PAW double counting   =     31578.57362735   -31248.61113608
  entropy T*S    EENTRO =         0.08710361
  eigenvalues    EBANDS =     -2010.31950923
  atomic energy  EATOM  =     38447.69961849
  ---------------------------------------------------
  free energy    TOTEN  =      -640.88941976 eV

  energy without entropy =     -640.97652337  energy(sigma->0) =     -640.91845429


--------------------------------------------------------------------------------------------------------




----------------------------------------- Iteration    1(  26)  ---------------------------------------


    POTLOK:  cpu time    0.05: real time    0.05
    SETDIJ:  cpu time    0.01: real time    0.01
     EDDAV:  cpu time   10.80: real time   10.80
       DOS:  cpu time    0.00: real time    0.00
    CHARGE:  cpu time    0.17: real time    0.17
    MIXING:  cpu time    0.00: real time    0.00
    --------------------------------------------
      LOOP:  cpu time   11.03: real time   11.15

 eigenvalue-minimisations  :  9312
 total energy-change (2. order) :-0.1077430E-01  (-0.3685832E-02)
 number of electron     571.0000234 magnetization      91.2671067
 augmentation part      169.1252282 magnetization      67.7851434

 Broyden mixing:
  rms(total) = 0.85293E-01    rms(broyden)= 0.85274E-01
  rms(prec ) = 0.86305E-01
  weight for this iteration     100.00

 eigenvalues of (default mixing * dielectric matrix)
  average eigenvalue GAMMA=   3.9690
 65.8407  2.4911  2.4911  1.6200  1.6200  1.1075  0.9354  0.9354  0.6917  0.6917
  0.6665  0.6665  0.2175  0.3243  0.3243  0.3745  0.3745  0.5441  0.5441  0.4443
  0.4443

 Free energy of the ion-electron system (eV)
  ---------------------------------------------------
  alpha Z        PSCENC =      2111.22712188
  Ewald energy   TEWEN  =    -28714.79437801
  -1/2 Hartree   DENC   =    -12199.38349754
  -exchange  EXHF       =         0.00000000
  -V(xc)+E(xc)   XCENC  =      1392.19018183
  PAW double counting   =     31581.48754672   -31251.44672306
  entropy T*S    EENTRO =         0.08596490
  eigenvalues    EBANDS =     -2007.96602926
  atomic energy  EATOM  =     38447.69961849
  ---------------------------------------------------
  free energy    TOTEN  =      -640.90019406 eV

  energy without entropy =     -640.98615896  energy(sigma->0) =     -640.92884903


--------------------------------------------------------------------------------------------------------




[...]
   -.127E+02 -.175E+00 0.108E+03   0.121E+02 0.140E+00 -.109E+03   0.580E+00 0.349E-01 0.135E+01   -.933E-02 0.131E-03 0.590E-01
   -.161E+02 0.270E-01 0.249E+03   0.163E+02 -.259E-01 -.250E+03   -.237E+00 -.130E-02 0.669E+00   0.103E-01 0.147E-03 0.715E-01
   -.118E+02 0.150E-01 0.343E+03   0.120E+02 -.140E-01 -.344E+03   -.197E+00 -.112E-02 0.726E+00   0.114E-01 -.228E-03 0.941E-01
   -.485E-05 -.247E-01 0.309E+03   -.182E-01 0.237E-01 -.309E+03   0.166E-01 0.875E-03 0.109E-03   0.469E-03 -.398E-03 0.528E-01
   -.488E+00 0.313E-02 0.143E+03   0.450E+00 -.400E-02 -.143E+03   0.409E-01 0.683E-03 -.131E-01   -.456E-02 -.465E-03 0.340E-01
   -.133E+00 0.261E-01 -.128E+02   0.123E+00 -.269E-01 0.128E+02   0.117E-01 0.620E-03 -.504E-02   -.292E-02 -.502E-03 0.127E-02
   0.265E+00 0.535E-01 -.163E+03   -.243E+00 -.543E-01 0.163E+03   -.232E-01 0.714E-03 -.604E-02   -.316E-03 -.388E-03 -.189E-01
   0.389E+00 0.781E-01 -.312E+03   -.349E+00 -.788E-01 0.312E+03   -.441E-01 0.578E-03 -.133E-01   0.216E-02 -.159E-03 -.395E-01
   0.718E-01 -.456E-02 0.225E+03   -.221E-01 0.397E-02 -.225E+03   -.525E-01 0.380E-03 -.331E-01   0.260E-02 -.445E-03 0.487E-01
   0.141E+00 0.126E-01 0.638E+02   -.115E+00 -.135E-01 -.638E+02   -.282E-01 0.788E-03 -.477E-02   0.263E-02 -.482E-03 0.155E-01
   0.454E+00 0.367E-01 -.881E+02   -.462E+00 -.377E-01 0.881E+02   0.785E-02 0.793E-03 -.601E-02   -.169E-02 -.402E-03 -.934E-02
   0.793E+00 0.671E-01 -.238E+03   -.823E+00 -.679E-01 0.238E+03   0.317E-01 0.674E-03 -.120E-01   -.616E-02 -.313E-03 -.281E-01
   0.414E+01 0.874E-01 -.386E+03   -.412E+01 -.883E-01 0.386E+03   -.171E-01 0.828E-03 -.734E-01   -.609E-02 -.791E-04 -.447E-01
   0.176E+02 -.179E+00 0.296E+03   -.162E+02 0.248E+00 -.306E+03   -.141E+01 -.694E-01 0.968E+01   -.214E-02 0.115E-03 0.708E-01
   0.114E+02 -.134E+00 0.225E+03   -.838E+01 0.183E+00 -.236E+03   -.303E+01 -.485E-01 0.108E+02   0.151E-02 -.310E-05 0.430E-01
   -.294E+01 -.171E-01 -.396E+03   0.104E+01 0.490E-01 0.406E+03   0.191E+01 -.318E-01 -.105E+02   -.400E-02 -.146E-03 -.352E-01
   0.189E+02 -.708E+00 0.905E+02   -.216E+02 0.131E+01 -.959E+02   0.271E+01 -.609E+00 0.542E+01   -.363E-01 0.816E-04 -.376E-01
   -.338E+02 -.101E-01 -.211E+03   0.378E+02 0.292E-01 0.215E+03   -.399E+01 -.186E-01 -.420E+01   0.599E-02 -.258E-03 -.680E-01
   0.276E+02 0.128E-01 -.444E+02   -.306E+02 -.171E-01 0.380E+02   0.310E+01 0.415E-02 0.645E+01   -.907E-03 0.859E-04 -.587E-01
   -.220E+02 -.111E-01 -.733E+02   0.220E+02 0.256E-01 0.818E+02   -.988E-01 -.151E-01 -.836E+01   0.358E-02 0.603E-05 -.819E-01
   0.360E+02 0.725E-01 -.228E+03   -.410E+02 -.960E-01 0.223E+03   0.506E+01 0.236E-01 0.434E+01   -.702E-03 -.179E-05 -.414E-01
   -.891E+01 0.101E-01 0.433E+02   0.877E+01 -.248E-01 -.334E+02   0.170E+00 0.184E-01 -.100E+02   -.246E-01 -.144E-02 0.102E+00
   -.167E+02 0.688E-01 0.149E+03   0.164E+02 -.120E+00 -.138E+03   0.350E+00 0.513E-01 -.111E+02   -.677E-03 -.149E-03 0.362E-01
   -.361E+02 0.497E-01 0.256E+03   0.381E+02 -.965E-01 -.248E+03   -.199E+01 0.461E-01 -.771E+01   -.743E-03 0.815E-04 0.322E-01
   -.107E+01 -.133E+00 0.337E+03   -.233E+01 0.173E+00 -.349E+03   0.340E+01 -.413E-01 0.114E+02   -.298E-02 0.278E-03 0.393E-01
   -.138E+02 -.140E+00 0.258E+03   0.114E+02 0.191E+00 -.269E+03   0.237E+01 -.511E-01 0.108E+02   -.230E-02 0.546E-05 0.470E-01
   -.194E+02 -.398E-02 0.146E+03   0.175E+02 0.140E-01 -.153E+03   0.186E+01 -.798E-02 0.690E+01   0.971E-02 -.576E-03 0.107E+00
   0.330E+02 -.471E-01 -.309E+03   -.368E+02 0.905E-01 0.314E+03   0.375E+01 -.432E-01 -.461E+01   -.499E-02 -.140E-03 -.532E-01
   -.229E+02 0.636E-01 0.221E+02   0.243E+02 -.950E-01 -.306E+02   -.142E+01 0.300E-01 0.850E+01   0.361E-03 0.399E-03 -.692E-01
   0.296E+02 -.258E-01 -.132E+03   -.319E+02 0.462E-01 0.138E+03   0.226E+01 -.201E-01 -.622E+01   -.208E-02 -.164E-03 -.738E-01
   -.347E+02 0.618E-01 -.131E+03   0.399E+02 -.860E-01 0.127E+03   -.518E+01 0.245E-01 0.410E+01   -.313E-03 -.925E-04 -.549E-01
   0.195E+02 0.169E+00 -.953E+00   -.163E+02 -.334E+00 0.999E+01   -.328E+01 0.163E+00 -.899E+01   0.385E-01 0.664E-03 -.457E-01
   -.398E+02 0.125E+00 -.320E+03   0.428E+02 -.166E+00 0.314E+03   -.305E+01 0.402E-01 0.599E+01   0.313E-02 0.197E-04 -.299E-01
   0.149E+02 0.266E-01 0.115E+03   -.143E+02 -.536E-01 -.104E+03   -.652E+00 0.275E-01 -.115E+02   -.484E-04 -.230E-03 0.384E-01
   0.180E+02 0.468E-01 0.193E+03   -.186E+02 -.914E-01 -.183E+03   0.557E+00 0.444E-01 -.101E+02   0.151E-02 -.428E-04 0.636E-01
   -.182E+03 0.416E-01 0.239E+03   0.216E+03 -.750E-01 -.232E+03   -.337E+02 0.332E-01 -.670E+01   0.359E-02 -.748E-04 0.534E-01
   -.179E+03 0.279E-01 0.151E+03   0.212E+03 -.546E-01 -.144E+03   -.337E+02 0.270E-01 -.728E+01   0.352E-02 -.204E-03 0.473E-01
   -.167E+03 0.104E+01 0.794E+02   0.186E+03 -.157E+01 -.835E+02   -.191E+02 0.535E+00 0.393E+01   0.715E-02 -.139E-02 0.189E+00
   0.189E+03 0.523E-01 -.189E+03   -.223E+03 -.657E-01 0.185E+03   0.340E+02 0.136E-01 0.457E+01   0.154E-02 0.174E-04 -.523E-01
   -.186E+03 -.529E-02 -.878E+02   0.220E+03 0.106E-01 0.933E+02   -.341E+02 -.524E-02 -.537E+01   0.397E-03 -.135E-03 -.746E-01
   0.185E+03 0.228E-02 -.238E+02   -.219E+03 -.335E-02 0.181E+02   0.341E+02 0.516E-03 0.576E+01   0.463E-04 0.195E-03 -.721E-01
   -.188E+03 -.134E-01 -.249E+03   0.222E+03 0.307E-01 0.253E+03   -.341E+02 -.168E-01 -.412E+01   -.275E-02 -.236E-03 -.545E-01
   0.163E+03 -.458E+00 0.126E+03   -.182E+03 0.690E+00 -.135E+03   0.187E+02 -.228E+00 0.845E+01   -.851E-02 -.119E-02 0.196E+00
   0.178E+03 -.126E+00 0.223E+03   -.212E+03 0.158E+00 -.230E+03   0.339E+02 -.322E-01 0.653E+01   -.392E-02 0.518E-04 0.473E-01
   0.182E+03 -.154E+00 0.308E+03   -.216E+03 0.196E+00 -.313E+03   0.340E+02 -.432E-01 0.543E+01   -.460E-02 0.242E-03 0.496E-01
   0.179E+03 0.382E-01 0.188E+03   -.213E+03 -.693E-01 -.181E+03   0.338E+02 0.312E-01 -.719E+01   0.335E-02 -.108E-03 0.539E-01
   0.178E+03 -.141E+00 0.113E+03   -.211E+03 0.169E+00 -.105E+03   0.333E+02 -.263E-01 -.866E+01   0.101E-01 -.471E-03 0.120E-01
   -.187E+03 0.956E-01 -.287E+03   0.221E+03 -.121E+00 0.282E+03   -.336E+02 0.254E-01 0.528E+01   0.336E-02 -.276E-04 -.367E-01
   0.183E+03 -.470E-01 -.328E+02   -.217E+03 0.855E-01 0.387E+02   0.333E+02 -.398E-01 -.590E+01   0.346E-02 0.254E-03 -.733E-01
   -.187E+03 0.374E-01 -.984E+02   0.221E+03 -.483E-01 0.938E+02   -.342E+02 0.111E-01 0.467E+01   -.420E-02 -.461E-04 -.614E-01
   0.189E+03 -.226E-01 -.157E+03   -.223E+03 0.365E-01 0.162E+03   0.342E+02 -.136E-01 -.423E+01   0.463E-02 -.143E-03 -.674E-01
   -.182E+03 0.102E+00 0.381E+02   0.216E+03 -.201E+00 -.445E+02   -.338E+02 0.965E-01 0.650E+01   0.263E-02 0.647E-03 -.673E-01
   0.186E+03 -.352E-01 -.350E+03   -.220E+03 0.677E-01 0.354E+03   0.340E+02 -.324E-01 -.441E+01   -.351E-02 -.681E-04 -.359E-01
   -.179E+03 -.592E-01 0.194E+03   0.212E+03 0.685E-01 -.201E+03   -.325E+02 -.852E-02 0.724E+01   -.141E-01 -.175E-03 0.117E-01
   -.181E+03 -.147E+00 0.258E+03   0.215E+03 0.186E+00 -.264E+03   -.339E+02 -.392E-01 0.631E+01   -.530E-02 0.333E-04 0.620E-01
   -.157E+02 0.419E-01 0.125E+03   0.138E+02 -.665E-01 -.114E+03   0.195E+01 0.236E-01 -.114E+02   -.815E-03 0.162E-03 0.308E-01
   -.155E+02 0.188E-01 -.105E+02   0.132E+02 -.238E-01 0.217E+02   0.227E+01 0.403E-02 -.113E+02   -.289E-03 0.175E-03 0.382E-02
   -.150E+02 -.379E-02 -.139E+03   0.122E+02 0.161E-01 0.151E+03   0.281E+01 -.132E-01 -.113E+02   -.158E-02 0.120E-03 -.153E-01
   -.141E+02 -.225E-01 -.267E+03   0.107E+02 0.490E-01 0.279E+03   0.336E+01 -.269E-01 -.113E+02   -.560E-03 -.582E-05 -.299E-01
   0.151E+02 0.237E-01 0.197E+03   -.131E+02 -.445E-01 -.186E+03   -.204E+01 0.199E-01 -.118E+02   0.609E-02 0.182E-03 0.343E-01
   0.147E+02 0.107E-01 0.564E+02   -.125E+02 -.163E-01 -.451E+02   -.217E+01 0.455E-02 -.112E+02   0.165E-02 0.242E-03 0.156E-01
   0.149E+02 -.140E-01 -.751E+02   -.122E+02 0.262E-01 0.864E+02   -.266E+01 -.132E-01 -.113E+02   0.223E-02 0.209E-03 -.786E-02
   0.150E+02 -.354E-01 -.203E+03   -.118E+02 0.645E-01 0.214E+03   -.317E+01 -.299E-01 -.114E+02   0.349E-02 0.125E-03 -.234E-01
   0.143E+02 -.399E-01 -.332E+03   -.106E+02 0.778E-01 0.344E+03   -.372E+01 -.382E-01 -.119E+02   0.170E-02 0.884E-05 -.377E-01
   -.138E+02 -.720E-01 0.188E+03   0.985E+01 0.958E-01 -.200E+03   0.396E+01 -.251E-01 0.115E+02   -.978E-03 0.350E-03 0.300E-01
   -.146E+02 -.587E-02 0.532E+02   0.116E+02 0.895E-02 -.646E+02   0.307E+01 -.429E-02 0.113E+02   -.202E-02 0.331E-03 0.463E-02
   -.151E+02 0.507E-01 -.756E+02   0.127E+02 -.643E-01 0.644E+02   0.235E+01 0.126E-01 0.112E+02   0.345E-03 0.282E-03 -.141E-01
   -.156E+02 0.101E+00 -.204E+03   0.137E+02 -.128E+00 0.193E+03   0.192E+01 0.262E-01 0.110E+02   0.133E-02 0.165E-03 -.305E-01
   0.126E+02 -.124E+00 0.260E+03   -.814E+01 0.164E+00 -.272E+03   -.449E+01 -.408E-01 0.120E+02   -.215E-02 0.389E-03 0.363E-01
   0.147E+02 -.594E-01 0.120E+03   -.114E+02 0.830E-01 -.131E+03   -.336E+01 -.250E-01 0.115E+02   0.127E-02 0.428E-03 0.162E-01
   0.156E+02 0.306E-02 -.114E+02   -.130E+02 0.234E-02 0.577E-01   -.260E+01 -.667E-02 0.113E+02   0.203E-02 0.403E-03 -.476E-02
   0.160E+02 0.558E-01 -.139E+03   -.139E+02 -.662E-01 0.128E+03   -.212E+01 0.949E-02 0.112E+02   0.260E-02 0.292E-03 -.197E-01
   0.177E+02 0.852E-01 -.269E+03   -.158E+02 -.104E+00 0.258E+03   -.193E+01 0.182E-01 0.114E+02   0.557E-02 0.162E-03 -.336E-01
   -.759E+01 -.645E-01 0.183E+02   0.797E+01 0.504E-01 -.191E+02   -.383E+00 0.184E-01 0.758E+00   0.120E-02 -.549E-05 0.247E-01
 -----------------------------------------------------------------------------------------------
   0.242E+01 0.230E+00 -.245E+01   0.400E-13 0.262E-12 -.261E-11   -.241E+01 -.239E+00 0.241E+01   -.205E-02 -.197E-02 0.362E-01
 
 
 POSITION                                       TOTAL-FORCE (eV/Angst)
 -----------------------------------------------------------------------------------
      0.37147      0.76720     41.34214         0.005705      0.000189     -0.001073
      0.39723      0.75795     32.15735         0.004992      0.000507     -0.001326
      4.48491      2.22929      1.54886        -0.001137     -0.000014     -0.003514
      0.22182      0.73973     22.71835        -0.004619     -0.001529     -0.003073
      4.51406      2.22055     10.92957        -0.008723      0.000047     -0.008185
      0.20305      0.74706     13.45457         0.006768      0.000081     -0.010405
      4.40700      2.21554     20.21853        -0.008520     -0.000823     -0.002770
      0.18920      0.75451      4.09062         0.009054      0.000081     -0.004150
      4.45752      2.22979     29.68378         0.006462      0.001183      0.007261
      4.49073      2.23693     38.85465        -0.002296      0.000121      0.008054
      2.21827      0.77305     45.97595         0.000312     -0.000342      0.008402
      2.15806      0.76198     36.74725        -0.001074      0.000010      0.005336
      2.11027      0.75797     27.47687         0.006996      0.002062      0.002529
      2.51782      2.22405      6.24256         0.008320      0.000275     -0.006050
      2.08725      0.74508     18.09774        -0.008125     -0.000152     -0.000768
      2.52577      2.21796     15.58686         0.005999      0.000129     -0.006536
      2.19303      0.75025      8.78497        -0.009097      0.000449     -0.011066
      2.56154      2.21810     24.83422        -0.003506      0.000110     -0.001908
      2.71329      2.23211     34.25895         0.006855      0.000096     -0.000705
      2.69319      2.24256     43.45993         0.007124     -0.000275      0.002303
      4.55189      2.24773     48.11823        -0.001131     -0.000437      0.008063
      4.55839      2.25092     52.43562        -0.001450     -0.000527      0.005024
      4.56057      2.25145     56.77201        -0.001865     -0.000483      0.002693
      4.56044      2.24933     61.11599        -0.001594     -0.000369      0.001973
      4.55401      2.24496     65.46007        -0.002045     -0.000201      0.001844
      2.22118      0.77747     50.26945        -0.000183     -0.000534      0.006080
      2.22892      0.77948     54.59862         0.000318     -0.000558      0.003622
      2.23475      0.77864     58.93957        -0.001504     -0.000448      0.002161
      2.23587      0.77530     63.28468        -0.004746     -0.000259      0.001384
      2.22493      0.77026     67.62502        -0.007269     -0.000046     -0.000387
      1.89196      0.76990     42.51973         0.012376     -0.000176      0.000258
      1.94254      0.75973     33.29135         0.009505      0.000273     -0.001719
      2.96783      2.23128      0.34706        -0.005642      0.000032     -0.002937
      1.70370      0.73907     23.97674        -0.005626     -0.003111      0.001486
      3.09459      2.22162      9.62521        -0.023778      0.000392      0.002334
      1.66088      0.74629     14.72408         0.019594      0.000105     -0.021149
      2.91465      2.21662     19.00686        -0.019203     -0.000380      0.006806
      1.61336      0.75258      5.41055         0.021637      0.000258     -0.025251
      2.98680      2.23005     28.37456         0.007753      0.002401     -0.004072
      2.94373      2.23423     37.68288        -0.006840      0.000145      0.011122
      3.05507      2.24527     46.86152        -0.003370     -0.000483      0.013222
      0.67653      0.77499     47.13226        -0.002981     -0.000598      0.004349
      0.61462      0.76400     37.89148        -0.005943      0.000084     -0.003689
      0.55161      0.75754     28.61715         0.013776      0.001610      0.002437
      3.94624      2.22611      4.94374         0.020667      0.000201      0.002547
      0.58666      0.74372     19.31943        -0.015144     -0.000784     -0.010877
      3.98714      2.21898     14.33103         0.020530      0.000249      0.007250
      0.76840      0.74854     10.09911        -0.021955      0.000390     -0.027754
      4.07203      2.21354     23.68520        -0.008443     -0.001366      0.002430
      0.69665      0.75752      0.67666        -0.006673      0.000056     -0.008893
      4.27065      2.23037     33.10157         0.006127      0.000400      0.006698
      4.22095      2.23986     42.26550         0.011386     -0.000071      0.014358
      3.45933      0.77078     44.47663         0.003615     -0.000187      0.011532
      3.44961      0.76018     35.29903         0.003614      0.000247      0.008482
      3.39452      0.76032     26.02023         0.000851      0.004948     -0.003092
      1.36503      2.22257      7.81295        -0.001246      0.000313     -0.021949
      3.31388      0.74563     16.60112         0.000500      0.000028      0.005395
      1.30453      2.21718     17.09137        -0.002888     -0.000241     -0.010947
      3.34409      0.75150      7.22511         0.001918      0.000405     -0.002369
      1.37982      2.22764     26.40766         0.008573      0.002641      0.013287
      1.42246      2.23355     35.68951         0.001286      0.000137     -0.001060
      1.45147      2.24446     44.93566         0.003269     -0.000425      0.002511
      3.74625      0.76531     39.88770         0.006614      0.000085      0.008761
      3.73306      0.75678     30.71719         0.012394      0.001123      0.004588
      1.00498      2.22676      3.10480         0.003266      0.000169     -0.016238
      3.62706      0.74344     21.24144        -0.007581     -0.000925     -0.000060
      1.02218      2.21913     12.47713         0.000190      0.000295     -0.019241
      3.69020      0.74828     11.91565        -0.001950      0.000302      0.000673
      0.99703      2.21282     21.70927        -0.010372     -0.001501     -0.006879
      3.67921      0.75670      2.55205         0.001107      0.000108     -0.001473
      1.12652      2.22958     31.08906         0.006847      0.000738      0.001028
      1.11579      2.23841     40.29058        -0.001710     -0.000018      0.000050
      3.00721      2.24947     51.23015        -0.000273     -0.000701      0.007610
      3.01410      2.25121     55.56438         0.000038     -0.000737      0.005811
      3.01704      2.25012     59.91134        -0.002337     -0.000610      0.002675
      3.01471      2.24656     64.26064        -0.003660     -0.000318     -0.002062
      3.77216      0.77594     49.07151        -0.000549     -0.000628      0.009128
      3.77465      0.77895     53.39602        -0.001331     -0.000756      0.006948
      3.77864      0.77921     57.73863        -0.002424     -0.000720      0.004553
      3.78101      0.77685     62.08860        -0.004640     -0.000522      0.000415
      3.78093      0.77231     66.43933        -0.006913     -0.000202     -0.004285
      0.67653      0.77842     51.44992         0.000085     -0.000776      0.008567
      0.68514      0.77921     55.79367        -0.000506     -0.000756      0.005882
      0.69097      0.77731     60.14443        -0.001775     -0.000598      0.002686
      0.69059      0.77313     64.49399        -0.003275     -0.000276     -0.000448
      1.45539      2.24900     49.28110        -0.001415     -0.000735      0.007761
      1.45084      2.25127     53.62218        -0.001330     -0.000822      0.006836
      1.45181      2.25069     57.97000        -0.002401     -0.000746      0.003904
      1.45104      2.24755     62.32020        -0.005857     -0.000490      0.001078
      1.44041      2.24258     66.66946        -0.006253     -0.000182     -0.002994
      4.31485      2.23178     26.88318        -0.001257      0.004365     -0.010836
 -----------------------------------------------------------------------------------
    total drift:                                0.002078     -0.010878     -0.006385


--------------------------------------------------------------------------------------------------------



  FREE ENERGIE OF THE ION-ELECTRON SYSTEM (eV)
  ---------------------------------------------------
  free  energy   TOTEN  =      -640.93176608 eV

  energy  without entropy=     -641.00958285  energy(sigma->0) =     -640.95770500
 
 d Force = 0.2071072E-03[ 0.165E-03, 0.249E-03]  d Energy = 0.1670813E-03 0.400E-04
 d Force = 0.2212632E+00[ 0.220E+00, 0.222E+00]  d Ewald  =-0.4124462E+01 0.435E+01


--------------------------------------------------------------------------------------------------------


    POTLOK:  cpu time    0.06: real time    0.06


--------------------------------------------------------------------------------------------------------




--------------------------------------------------------------------------------------------------------


  
 reached required accuracy - stopping structural energy minimisation
     LOOP+:  cpu time   40.13: real time   41.09
    4ORBIT:  cpu time    0.00: real time    0.00

 total amount of memory used by VASP on root node    55859. kBytes
========================================================================

   base      :      30000. kBytes
   nonl-proj :       6801. kBytes
   fftplans  :       1064. kBytes
   grid      :       2790. kBytes
   one-center:        373. kBytes
   wavefun   :      14831. kBytes
 
  
  
 General timing and accounting informations for this job:
 ========================================================
  
                  Total CPU time used (sec):      597.559
                            User time (sec):      580.521
                          System time (sec):       17.038
                         Elapsed time (sec):      608.093
  
                   Maximum memory used (kb):      144580.
                   Average memory used (kb):           0.
  
                          Minor page faults:        18097
                          Major page faults:            0
                 Voluntary context switches:        58079
