 vasp.5.3.3 18Dez12 (build May 12 2016 12:04:25) complex                        
  
 executed on             LinuxIFC date 2019.06.08  13:56:27
 running on   32 total cores
 distrk:  each k-point on   32 cores,    1 groups
 distr:  one band on NCORES_PER_BAND=   4 cores,    8 groups


--------------------------------------------------------------------------------------------------------


 INCAR:
 POTCAR:    PAW_PBE Mn 06Sep2000                  
 POTCAR:    PAW_PBE O 08Apr2002                   
 POTCAR:    PAW_PBE Mn 06Sep2000                  
  local pseudopotential read in
  partial core-charges read in
  partial kinetic energy density read in
  atomic valenz-charges read in
  non local Contribution for L=           2  read in
    real space projection operators read in
  non local Contribution for L=           2  read in
    real space projection operators read in
  non local Contribution for L=           0  read in
    real space projection operators read in
  non local Contribution for L=           0  read in
    real space projection operators read in
  non local Contribution for L=           1  read in
    real space projection operators read in
  non local Contribution for L=           1  read in
    real space projection operators read in
    PAW grid and wavefunctions read in
 
   number of l-projection  operators is LMAX  =           6
   number of lm-projection operators is LMMAX =          18
 
 POTCAR:    PAW_PBE O 08Apr2002                   
  local pseudopotential read in
  partial core-charges read in
  partial kinetic energy density read in
  kinetic energy density of atom read in
  atomic valenz-charges read in
  non local Contribution for L=           0  read in
    real space projection operators read in
  non local Contribution for L=           0  read in
    real space projection operators read in
  non local Contribution for L=           1  read in
    real space projection operators read in
  non local Contribution for L=           1  read in
    real space projection operators read in
    PAW grid and wavefunctions read in
 
   number of l-projection  operators is LMAX  =           4
   number of lm-projection operators is LMMAX =           8
 

 ----------------------------------------------------------------------------- 
|                                                                             |
|  ADVICE TO THIS USER RUNNING 'VASP/VAMP'   (HEAR YOUR MASTER'S VOICE ...):  |
|                                                                             |
|      You enforced a specific xc-type in the INCAR file,                     |
|      a different type was found on the POTCAR file                          |
|          I HOPE YOU KNOW, WHAT YOU ARE  DOING                               |
|                                                                             |
 ----------------------------------------------------------------------------- 

  PAW_PBE Mn 06Sep2000                  :
 energy of atom  1       EATOM= -416.7541
 kinetic energy error for atom=    0.0024 (will be added to EATOM!!)
  PAW_PBE O 08Apr2002                   :
 energy of atom  2       EATOM= -432.3788
 kinetic energy error for atom=    0.0208 (will be added to EATOM!!)
 
 
 POSCAR: (Mn O2)4  (Pnma) ~  (Pearson #541374)_1 
  positions in direct lattice
  velocities in cartesian coordinates
 exchange correlation table for  LEXCH =       14
   RHO(1)=    0.500       N(1)  =     2000
   RHO(2)=  100.500       N(2)  =     4000
 


--------------------------------------------------------------------------------------------------------


 ion  position               nearest neighbor table
   1  0.135  0.250  0.033-   5 1.89   8 1.89   8 1.89  12 1.91  12 1.91  10 1.92   3 2.90   3 2.90

   2  0.635  0.250  0.467-   6 1.89   7 1.89   7 1.89  11 1.91  11 1.91   9 1.92   4 2.90   4 2.90

   3  0.865  0.750  0.967-   7 1.89   6 1.89   6 1.89  10 1.91  10 1.91  12 1.92   1 2.90   1 2.90

   4  0.365  0.750  0.533-   8 1.89   5 1.89   5 1.89   9 1.91   9 1.91  11 1.92   2 2.90   2 2.90

   5  0.278  0.250  0.329-   1 1.89   4 1.89   4 1.89
   6  0.778  0.250  0.171-   2 1.89   3 1.89   3 1.89
   7  0.722  0.750  0.671-   3 1.89   2 1.89   2 1.89
   8  0.222  0.750  0.829-   4 1.89   1 1.89   1 1.89
   9  0.467  0.250  0.714-   4 1.91   4 1.91   2 1.92
  10  0.967  0.250  0.786-   3 1.91   3 1.91   1 1.92
  11  0.533  0.750  0.286-   2 1.91   2 1.91   4 1.92
  12  0.033  0.750  0.214-   1 1.91   1 1.91   3 1.92
 
  LATTYP: Found a simple orthorhombic cell.
 ALAT       =     2.8805238810
 B/A-ratio  =     1.5858649912
 C/A-ratio  =     3.2034534132
  
  Lattice vectors:
  
 A1 = (   0.0000000000,   2.8805238810,   0.0000000000)
 A2 = (   0.0000000000,   0.0000000000,  -4.5681219792)
 A3 = (  -9.2276240585,   0.0000000000,   0.0000000000)


Analysis of symmetry for initial positions (statically):
=====================================================================
 Subroutine PRICEL returns:
 Original cell was already a primitive cell.
 

 Routine SETGRP: Setting up the symmetry group for a 
 simple orthorhombic supercell.


 Subroutine GETGRP returns: Found  8 space group operations
 (whereof  2 operations were pure point group operations)
 out of a pool of  8 trial point group operations.


The static configuration has the point symmetry S_2 .
 The point group associated with its full space group is D_2h.


Analysis of symmetry for dynamics (positions and initial velocities):
=====================================================================
 Subroutine PRICEL returns:
 Original cell was already a primitive cell.
 

 Routine SETGRP: Setting up the symmetry group for a 
 simple orthorhombic supercell.


 Subroutine GETGRP returns: Found  8 space group operations
 (whereof  2 operations were pure point group operations)
 out of a pool of  8 trial point group operations.


The dynamic configuration has the point symmetry S_2 .
 The point group associated with its full space group is D_2h.


Analysis of magnetic symmetry:
=====================================================================

 Subroutine MAGSYM returns: Found  8 space group operations
 (whereof  2 operations were pure point group operations)
 out of a pool of  8 trial space group operations
 (whereof  2 operations were pure point group operations)
 and found also     1 'primitive' translations


The magnetic configuration has the point symmetry S_2 .
 The point group associated with its full space group is D_2h.


 irot  :   1
 --------------------------------------------------------------------
 isymop:   1   0   0
           0   1   0
           0   0   1

 gtrans:     0.0000000     0.0000000     0.0000000

 ptrans:     0.0000000     0.0000000     0.0000000
 rotmap:
 (   1->   1)  (   2->   2)  (   3->   3)  (   4->   4)  (   5->   5) 
 (   6->   6)  (   7->   7)  (   8->   8)  (   9->   9)  (  10->  10) 
 (  11->  11)  (  12->  12) 


 irot  :   2
 --------------------------------------------------------------------
 isymop:  -1   0   0
           0  -1   0
           0   0  -1

 gtrans:     0.0000000     0.0000000     0.0000000

 ptrans:     0.0000000     0.0000000     0.0000000
 rotmap:
 (   1->   3)  (   2->   4)  (   3->   1)  (   4->   2)  (   5->   7) 
 (   6->   8)  (   7->   5)  (   8->   6)  (   9->  11)  (  10->  12) 
 (  11->   9)  (  12->  10) 


 irot  :   3
 --------------------------------------------------------------------
 isymop:   1   0   0
           0  -1   0
           0   0  -1

 gtrans:    -0.5000000     0.5000000    -0.5000000

 ptrans:     0.0000000     0.0000000     0.0000000
 rotmap:
 (   1->   2)  (   2->   1)  (   3->   4)  (   4->   3)  (   5->   6) 
 (   6->   5)  (   7->   8)  (   8->   7)  (   9->  10)  (  10->   9) 
 (  11->  12)  (  12->  11) 


 irot  :   4
 --------------------------------------------------------------------
 isymop:  -1   0   0
           0   1   0
           0   0   1

 gtrans:    -0.5000000     0.5000000    -0.5000000

 ptrans:     0.0000000     0.0000000     0.0000000
 rotmap:
 (   1->   4)  (   2->   3)  (   3->   2)  (   4->   1)  (   5->   8) 
 (   6->   7)  (   7->   6)  (   8->   5)  (   9->  12)  (  10->  11) 
 (  11->  10)  (  12->   9) 


 irot  :   5
 --------------------------------------------------------------------
 isymop:  -1   0   0
           0  -1   0
           0   0   1

 gtrans:    -0.5000000     0.0000000    -0.5000000

 ptrans:     0.0000000     0.0000000     0.0000000
 rotmap:
 (   1->   4)  (   2->   3)  (   3->   2)  (   4->   1)  (   5->   8) 
 (   6->   7)  (   7->   6)  (   8->   5)  (   9->  12)  (  10->  11) 
 (  11->  10)  (  12->   9) 


 irot  :   6
 --------------------------------------------------------------------
 isymop:   1   0   0
           0   1   0
           0   0  -1

 gtrans:    -0.5000000     0.0000000    -0.5000000

 ptrans:     0.0000000     0.0000000     0.0000000
 rotmap:
 (   1->   2)  (   2->   1)  (   3->   4)  (   4->   3)  (   5->   6) 
 (   6->   5)  (   7->   8)  (   8->   7)  (   9->  10)  (  10->   9) 
 (  11->  12)  (  12->  11) 


 irot  :   7
 --------------------------------------------------------------------
 isymop:  -1   0   0
           0   1   0
           0   0  -1

 gtrans:     0.0000000     0.5000000     0.0000000

 ptrans:     0.0000000     0.0000000     0.0000000
 rotmap:
 (   1->   3)  (   2->   4)  (   3->   1)  (   4->   2)  (   5->   7) 
 (   6->   8)  (   7->   5)  (   8->   6)  (   9->  11)  (  10->  12) 
 (  11->   9)  (  12->  10) 


 irot  :   8
 --------------------------------------------------------------------
 isymop:   1   0   0
           0  -1   0
           0   0   1

 gtrans:     0.0000000     0.5000000     0.0000000

 ptrans:     0.0000000     0.0000000     0.0000000
 rotmap:
 (   1->   1)  (   2->   2)  (   3->   3)  (   4->   4)  (   5->   5) 
 (   6->   6)  (   7->   7)  (   8->   8)  (   9->   9)  (  10->  10) 
 (  11->  11)  (  12->  12) 
 
 
 KPOINTS: Automatic mesh                          

Automatic generation of k-mesh.
Space group operators:
 irot       det(A)        alpha          n_x          n_y          n_z        tau_x        tau_y        tau_z
    1     1.000000     0.000000     1.000000     0.000000     0.000000     0.000000     0.000000     0.000000
    2    -1.000000     0.000000     1.000000     0.000000     0.000000     0.000000     0.000000     0.000000
    3     1.000000   180.000000     1.000000     0.000000     0.000000    -0.500000     0.500000    -0.500000
    4    -1.000000   180.000000     1.000000     0.000000     0.000000    -0.500000     0.500000    -0.500000
    5     1.000000   180.000000     0.000000     0.000000     1.000000    -0.500000     0.000000    -0.500000
    6    -1.000000   180.000000     0.000000     0.000000     1.000000    -0.500000     0.000000    -0.500000
    7     1.000000   180.000000     0.000000     1.000000     0.000000     0.000000     0.500000     0.000000
    8    -1.000000   180.000000     0.000000     1.000000     0.000000     0.000000     0.500000     0.000000
 
 Subroutine IBZKPT returns following result:
 ===========================================
 
 Found     40 irreducible k-points:
 
 Following reciprocal coordinates:
            Coordinates               Weight
  0.000000  0.000000  0.000000      1.000000
  0.333333  0.000000  0.000000      2.000000
  0.000000  0.111111  0.000000      2.000000
  0.333333  0.111111  0.000000      4.000000
  0.000000  0.222222  0.000000      2.000000
  0.333333  0.222222  0.000000      4.000000
  0.000000  0.333333  0.000000      2.000000
  0.333333  0.333333  0.000000      4.000000
  0.000000  0.444444  0.000000      2.000000
  0.333333  0.444444  0.000000      4.000000
  0.000000  0.000000  0.166667      2.000000
  0.333333  0.000000  0.166667      4.000000
  0.000000  0.111111  0.166667      4.000000
  0.333333  0.111111  0.166667      8.000000
  0.000000  0.222222  0.166667      4.000000
  0.333333  0.222222  0.166667      8.000000
  0.000000  0.333333  0.166667      4.000000
  0.333333  0.333333  0.166667      8.000000
  0.000000  0.444444  0.166667      4.000000
  0.333333  0.444444  0.166667      8.000000
  0.000000  0.000000  0.333333      2.000000
  0.333333  0.000000  0.333333      4.000000
  0.000000  0.111111  0.333333      4.000000
  0.333333  0.111111  0.333333      8.000000
  0.000000  0.222222  0.333333      4.000000
  0.333333  0.222222  0.333333      8.000000
  0.000000  0.333333  0.333333      4.000000
  0.333333  0.333333  0.333333      8.000000
  0.000000  0.444444  0.333333      4.000000
  0.333333  0.444444  0.333333      8.000000
  0.000000  0.000000  0.500000      1.000000
  0.333333  0.000000  0.500000      2.000000
  0.000000  0.111111  0.500000      2.000000
  0.333333  0.111111  0.500000      4.000000
  0.000000  0.222222  0.500000      2.000000
  0.333333  0.222222  0.500000      4.000000
  0.000000  0.333333  0.500000      2.000000
  0.333333  0.333333  0.500000      4.000000
  0.000000  0.444444  0.500000      2.000000
  0.333333  0.444444  0.500000      4.000000
 
 Following cartesian coordinates:
            Coordinates               Weight
  0.000000  0.000000  0.000000      1.000000
  0.036123  0.000000  0.000000      2.000000
  0.000000  0.038573  0.000000      2.000000
  0.036123  0.038573  0.000000      4.000000
  0.000000  0.077146  0.000000      2.000000
  0.036123  0.077146  0.000000      4.000000
  0.000000  0.115720  0.000000      2.000000
  0.036123  0.115720  0.000000      4.000000
  0.000000  0.154293  0.000000      2.000000
  0.036123  0.154293  0.000000      4.000000
  0.000000  0.000000  0.036485      2.000000
  0.036123  0.000000  0.036485      4.000000
  0.000000  0.038573  0.036485      4.000000
  0.036123  0.038573  0.036485      8.000000
  0.000000  0.077146  0.036485      4.000000
  0.036123  0.077146  0.036485      8.000000
  0.000000  0.115720  0.036485      4.000000
  0.036123  0.115720  0.036485      8.000000
  0.000000  0.154293  0.036485      4.000000
  0.036123  0.154293  0.036485      8.000000
  0.000000  0.000000  0.072969      2.000000
  0.036123  0.000000  0.072969      4.000000
  0.000000  0.038573  0.072969      4.000000
  0.036123  0.038573  0.072969      8.000000
  0.000000  0.077146  0.072969      4.000000
  0.036123  0.077146  0.072969      8.000000
  0.000000  0.115720  0.072969      4.000000
  0.036123  0.115720  0.072969      8.000000
  0.000000  0.154293  0.072969      4.000000
  0.036123  0.154293  0.072969      8.000000
  0.000000  0.000000  0.109454      1.000000
  0.036123  0.000000  0.109454      2.000000
  0.000000  0.038573  0.109454      2.000000
  0.036123  0.038573  0.109454      4.000000
  0.000000  0.077146  0.109454      2.000000
  0.036123  0.077146  0.109454      4.000000
  0.000000  0.115720  0.109454      2.000000
  0.036123  0.115720  0.109454      4.000000
  0.000000  0.154293  0.109454      2.000000
  0.036123  0.154293  0.109454      4.000000
 
 TETIRR: Found    477 inequivalent tetrahedra from      972


--------------------------------------------------------------------------------------------------------




 Dimension of arrays:
   k-points           NKPTS =     40   k-points in BZ     NKDIM =     40   number of bands    NBANDS=     48
   number of dos      NEDOS =    301   number of ions     NIONS =     12
   non local maximal  LDIM  =      6   non local SUM 2l+1 LMDIM =     18
   total plane-waves  NPLWV =  24192
   max r-space proj   IRMAX =      1   max aug-charges    IRDMAX=   7524
   dimension x,y,z NGX =    54 NGY =   16 NGZ =   28
   dimension x,y,z NGXF=   108 NGYF=   32 NGZF=   56
   support grid    NGXF=   108 NGYF=   32 NGZF=   56
   ions per type =               4   8
 NGX,Y,Z   is equivalent  to a cutoff of   9.73,  9.23, 10.19 a.u.
 NGXF,Y,Z  is equivalent  to a cutoff of  19.46, 18.47, 20.38 a.u.


 I would recommend the setting:
   dimension x,y,z NGX =    51 NGY =   16 NGZ =   25
 SYSTEM =  (Mn O2)4  (Pnma) ~  (Pearson            
 POSCAR =  (Mn O2)4  (Pnma) ~  (Pearson #541374)_1 

 Startparameter for this run:
   NWRITE =      1    write-flag & timer
   PREC   = normal    normal or accurate (medium, high low for compatibility)
   ISTART =      0    job   : 0-new  1-cont  2-samecut
   ICHARG =     11    charge: 1-file 2-atom 10-const
   ISPIN  =      2    spin polarized calculation?
   LNONCOLLINEAR =      F non collinear calculations
   LSORBIT =      F    spin-orbit coupling
   INIWAV =      1    electr: 0-lowe 1-rand  2-diag
   LASPH  =      F    aspherical Exc in radial PAW
   METAGGA=      F    non-selfconsistent MetaGGA calc.

 Electronic Relaxation 1
   ENCUT  =  520.0 eV  38.22 Ry    6.18 a.u.  17.16  5.36  8.49*2*pi/ulx,y,z
   ENINI  =  520.0     initial cutoff
   ENAUG  =  605.4 eV  augmentation charge cutoff
   NELM   =     60;   NELMIN=  2; NELMDL= -5     # of ELM steps 
   EDIFF  = 0.1E-03   stopping-criterion for ELM
   LREAL  =      F    real-space projection
   NLSPLINE    = F    spline interpolate recip. space projectors
   LCOMPAT=      F    compatible to vasp.4.4
   GGA_COMPAT  = T    GGA compatible to vasp.4.4-vasp.4.6
   LMAXPAW     = -100 max onsite density
   LMAXMIX     =    4 max onsite mixed and CHGCAR
   VOSKOWN=      1    Vosko Wilk Nusair interpolation
   ROPT   =    0.00000   0.00000
 Ionic relaxation
   EDIFFG = 0.1E-02   stopping-criterion for IOM
   NSW    =      0    number of steps for IOM
   NBLOCK =      1;   KBLOCK =      1    inner block; outer block 
   IBRION =     -1    ionic relax: 0-MD 1-quasi-New 2-CG
   NFREE  =      0    steps in history (QN), initial steepest desc. (CG)
   ISIF   =      2    stress and relaxation
   IWAVPR =     10    prediction:  0-non 1-charg 2-wave 3-comb
   ISYM   =      2    0-nonsym 1-usesym 2-fastsym
   LCORR  =      T    Harris-Foulkes like correction to forces

   POTIM  = 0.5000    time-step for ionic-motion
   TEIN   =    0.0    initial temperature
   TEBEG  =    0.0;   TEEND  =   0.0 temperature during run
   SMASS  =  -3.00    Nose mass-parameter (am)
   estimated Nose-frequenzy (Omega)   =  0.10E-29 period in steps =****** mass=  -0.195E-26a.u.
   SCALEE = 1.0000    scale energy and forces
   NPACO  =    256;   APACO  = 16.0  distance and # of slots for P.C.
   PSTRESS=    0.0 pullay stress

  Mass of Ions in am
   POMASS =  54.94 16.00
  Ionic Valenz
   ZVAL   =   7.00  6.00
  Atomic Wigner-Seitz radii
   RWIGS  =  -1.00 -1.00
  virtual crystal weights 
   VCA    =   1.00  1.00
   NELECT =      76.0000    total number of electrons
   NUPDOWN=      -1.0000    fix difference up-down

 DOS related values:
   EMIN   =  10.00;   EMAX   =-10.00  energy-range for DOS
   EFERMI =   0.00
   ISMEAR =    -5;   SIGMA  =   0.20  broadening in eV -4-tet -1-fermi 0-gaus

 Electronic relaxation 2 (details)
   IALGO  =     38    algorithm
   LDIAG  =      T    sub-space diagonalisation (order eigenvalues)
   LSUBROT=      T    optimize rotation matrix (better conditioning)
   TURBO    =      0    0=normal 1=particle mesh
   IRESTART =      0    0=no restart 2=restart with 2 vectors
   NREBOOT  =      0    no. of reboots
   NMIN     =      0    reboot dimension
   EREF     =   0.00    reference energy to select bands
   IMIX   =      4    mixing-type and parameters
     AMIX     =   0.40;   BMIX     =  1.00
     AMIX_MAG =   1.60;   BMIX_MAG =  1.00
     AMIN     =   0.10
     WC   =   100.;   INIMIX=   1;  MIXPRE=   1;  MAXMIX= -45

 Intra band minimization:
   WEIMIN = 0.0000     energy-eigenvalue tresh-hold
   EBREAK =  0.52E-06  absolut break condition
   DEPER  =   0.30     relativ break condition  

   TIME   =   0.40     timestep for ELM

  volume/ion in A,a.u.               =      10.12        68.28
  Fermi-wavevector in a.u.,A,eV,Ry     =   1.400381  2.646337 26.681952  1.961068
  Thomas-Fermi vector in A             =   2.523348
 
 Write flags
   LWAVE  =      F    write WAVECAR
   LCHARG =      T    write CHGCAR
   LVTOT  =      F    write LOCPOT, total local potential
   LVHAR  =      F    write LOCPOT, Hartree potential only
   LELF   =      F    write electronic localiz. function (ELF)
   LORBIT =     11    0 simple, 1 ext, 2 COOP (PROOUT)


 Dipole corrections
   LMONO  =      F    monopole corrections only (constant potential shift)
   LDIPOL =      F    correct potential (dipole corrections)
   IDIPOL =      0    1-x, 2-y, 3-z, 4-all directions 
   EPSILON=  1.0000000 bulk dielectric constant

 LDA+U is selected, type is set to LDAUTYPE =  2
   angular momentum for each species LDAUL =     2   -1
   U (eV)           for each species LDAUU =   3.9  0.0
   J (eV)           for each species LDAUJ =   0.0  0.0
 Exchange correlation treatment:
   GGA     =    PS    GGA type
   LEXCH   =    14    internal setting for exchange type
   VOSKOWN=      1    Vosko Wilk Nusair interpolation
   LHFCALC =     F    Hartree Fock is set to
   LHFONE  =     F    Hartree Fock one center treatment
   AEXX    =    0.0000 exact exchange contribution

 Linear response parameters
   LEPSILON=     F    determine dielectric tensor
   LRPA    =     F    only Hartree local field effects (RPA)
   LNABLA  =     F    use nabla operator in PAW spheres
   LVEL    =     F    velocity operator in full k-point grid
   LINTERFAST=   F  fast interpolation
   KINTER  =     0    interpolate to denser k-point grid
   CSHIFT  =0.1000    complex shift for real part using Kramers Kronig
   OMEGAMAX=  -1.0    maximum frequency
   DEG_THRESHOLD= 0.2000000E-02 threshold for treating states as degnerate
   RTIME   =    0.100 relaxation time in fs

 Orbital magnetization related:
   ORBITALMAG=     F  switch on orbital magnetization
   LCHIMAG   =     F  perturbation theory with respect to B field
   DQ        =  0.001000  dq finite difference perturbation B field



--------------------------------------------------------------------------------------------------------


 Static calculation
 charge density and potential remain constant during run
 spin polarized calculation
 Variant of blocked Davidson
 Davidson routine will perform the subspace rotation
 perform sub-space diagonalisation
    after iterative eigenvector-optimisation
 no mixing
 using additional bands           10
 reciprocal scheme for non local part
 use partial core corrections
 calculate Harris-corrections to forces 
   (improved forces if not selfconsistent)
 use gradient corrections 
 WARNING: stress and forces are not correct
  (second derivative of E(xc) not defined)
 use of overlap-Matrix (Vanderbilt PP)
 Fermi weights with tetrahedron method with Bloechl corrections


--------------------------------------------------------------------------------------------------------


  energy-cutoff  :      520.00
  volume of cell :      121.42
      direct lattice vectors                 reciprocal lattice vectors
     9.227624058  0.000000000  0.000000000     0.108370258  0.000000000  0.000000000
     0.000000000  2.880523881  0.000000000     0.000000000  0.347159073  0.000000000
     0.000000000  0.000000000  4.568121979     0.000000000  0.000000000  0.218908340

  length of vectors
     9.227624058  2.880523881  4.568121979     0.108370258  0.347159073  0.218908340


 
 k-points in units of 2pi/SCALE and weight: Automatic mesh                          
   0.00000000  0.00000000  0.00000000       0.006
   0.03612342  0.00000000  0.00000000       0.012
   0.00000000  0.03857323  0.00000000       0.012
   0.03612342  0.03857323  0.00000000       0.025
   0.00000000  0.07714646  0.00000000       0.012
   0.03612342  0.07714646  0.00000000       0.025
   0.00000000  0.11571969  0.00000000       0.012
   0.03612342  0.11571969  0.00000000       0.025
   0.00000000  0.15429292  0.00000000       0.012
   0.03612342  0.15429292  0.00000000       0.025
   0.00000000  0.00000000  0.03648472       0.012
   0.03612342  0.00000000  0.03648472       0.025
   0.00000000  0.03857323  0.03648472       0.025
   0.03612342  0.03857323  0.03648472       0.049
   0.00000000  0.07714646  0.03648472       0.025
   0.03612342  0.07714646  0.03648472       0.049
   0.00000000  0.11571969  0.03648472       0.025
   0.03612342  0.11571969  0.03648472       0.049
   0.00000000  0.15429292  0.03648472       0.025
   0.03612342  0.15429292  0.03648472       0.049
   0.00000000  0.00000000  0.07296945       0.012
   0.03612342  0.00000000  0.07296945       0.025
   0.00000000  0.03857323  0.07296945       0.025
   0.03612342  0.03857323  0.07296945       0.049
   0.00000000  0.07714646  0.07296945       0.025
   0.03612342  0.07714646  0.07296945       0.049
   0.00000000  0.11571969  0.07296945       0.025
   0.03612342  0.11571969  0.07296945       0.049
   0.00000000  0.15429292  0.07296945       0.025
   0.03612342  0.15429292  0.07296945       0.049
   0.00000000  0.00000000  0.10945417       0.006
   0.03612342  0.00000000  0.10945417       0.012
   0.00000000  0.03857323  0.10945417       0.012
   0.03612342  0.03857323  0.10945417       0.025
   0.00000000  0.07714646  0.10945417       0.012
   0.03612342  0.07714646  0.10945417       0.025
   0.00000000  0.11571969  0.10945417       0.012
   0.03612342  0.11571969  0.10945417       0.025
   0.00000000  0.15429292  0.10945417       0.012
   0.03612342  0.15429292  0.10945417       0.025
 
 k-points in reciprocal lattice and weights: Automatic mesh                          
   0.00000000  0.00000000  0.00000000       0.006
   0.33333333  0.00000000  0.00000000       0.012
   0.00000000  0.11111111  0.00000000       0.012
   0.33333333  0.11111111  0.00000000       0.025
   0.00000000  0.22222222  0.00000000       0.012
   0.33333333  0.22222222  0.00000000       0.025
   0.00000000  0.33333333  0.00000000       0.012
   0.33333333  0.33333333  0.00000000       0.025
   0.00000000  0.44444444  0.00000000       0.012
   0.33333333  0.44444444  0.00000000       0.025
   0.00000000  0.00000000  0.16666667       0.012
   0.33333333  0.00000000  0.16666667       0.025
   0.00000000  0.11111111  0.16666667       0.025
   0.33333333  0.11111111  0.16666667       0.049
   0.00000000  0.22222222  0.16666667       0.025
   0.33333333  0.22222222  0.16666667       0.049
   0.00000000  0.33333333  0.16666667       0.025
   0.33333333  0.33333333  0.16666667       0.049
   0.00000000  0.44444444  0.16666667       0.025
   0.33333333  0.44444444  0.16666667       0.049
   0.00000000  0.00000000  0.33333333       0.012
   0.33333333  0.00000000  0.33333333       0.025
   0.00000000  0.11111111  0.33333333       0.025
   0.33333333  0.11111111  0.33333333       0.049
   0.00000000  0.22222222  0.33333333       0.025
   0.33333333  0.22222222  0.33333333       0.049
   0.00000000  0.33333333  0.33333333       0.025
   0.33333333  0.33333333  0.33333333       0.049
   0.00000000  0.44444444  0.33333333       0.025
   0.33333333  0.44444444  0.33333333       0.049
   0.00000000  0.00000000  0.50000000       0.006
   0.33333333  0.00000000  0.50000000       0.012
   0.00000000  0.11111111  0.50000000       0.012
   0.33333333  0.11111111  0.50000000       0.025
   0.00000000  0.22222222  0.50000000       0.012
   0.33333333  0.22222222  0.50000000       0.025
   0.00000000  0.33333333  0.50000000       0.012
   0.33333333  0.33333333  0.50000000       0.025
   0.00000000  0.44444444  0.50000000       0.012
   0.33333333  0.44444444  0.50000000       0.025
 
 position of ions in fractional coordinates (direct lattice) 
   0.13527149  0.25000000  0.03267890
   0.63527149  0.25000000  0.46732110
   0.86472851  0.75000000  0.96732110
   0.36472851  0.75000000  0.53267890
   0.27823310  0.25000000  0.32857898
   0.77823310  0.25000000  0.17142102
   0.72176690  0.75000000  0.67142102
   0.22176690  0.75000000  0.82857898
   0.46686126  0.25000000  0.71377677
   0.96686126  0.25000000  0.78622323
   0.53313874  0.75000000  0.28622323
   0.03313874  0.75000000  0.21377677
 
 position of ions in cartesian coordinates  (Angst):
   1.24823443  0.72013097  0.14928119
   5.86204646  0.72013097  2.13477980
   7.97938963  2.16039291  4.41884079
   3.36557760  2.16039291  2.43334218
   2.56743047  0.72013097  1.50098887
   7.18124250  0.72013097  0.78307212
   6.66019359  2.16039291  3.06713311
   2.04638156  2.16039291  3.78504986
   4.30802024  0.72013097  3.26061935
   8.92183226  0.72013097  3.59156362
   4.91960382  2.16039291  1.30750263
   0.30579179  2.16039291  0.97655836
 


--------------------------------------------------------------------------------------------------------


 k-point  1 :   0.0000 0.0000 0.0000  plane waves:    3281
 k-point  2 :   0.3333 0.0000 0.0000  plane waves:    3292
 k-point  3 :   0.0000 0.1111 0.0000  plane waves:    3271
 k-point  4 :   0.3333 0.1111 0.0000  plane waves:    3279
 k-point  5 :   0.0000 0.2222 0.0000  plane waves:    3275
 k-point  6 :   0.3333 0.2222 0.0000  plane waves:    3272
 k-point  7 :   0.0000 0.3333 0.0000  plane waves:    3269
 k-point  8 :   0.3333 0.3333 0.0000  plane waves:    3270
 k-point  9 :   0.0000 0.4444 0.0000  plane waves:    3284
 k-point 10 :   0.3333 0.4444 0.0000  plane waves:    3279
 k-point 11 :   0.0000 0.0000 0.1667  plane waves:    3263
 k-point 12 :   0.3333 0.0000 0.1667  plane waves:    3290
 k-point 13 :   0.0000 0.1111 0.1667  plane waves:    3265
 k-point 14 :   0.3333 0.1111 0.1667  plane waves:    3285
 k-point 15 :   0.0000 0.2222 0.1667  plane waves:    3275
 k-point 16 :   0.3333 0.2222 0.1667  plane waves:    3273
 k-point 17 :   0.0000 0.3333 0.1667  plane waves:    3267
 k-point 18 :   0.3333 0.3333 0.1667  plane waves:    3262
 k-point 19 :   0.0000 0.4444 0.1667  plane waves:    3269
 k-point 20 :   0.3333 0.4444 0.1667  plane waves:    3270
 k-point 21 :   0.0000 0.0000 0.3333  plane waves:    3281
 k-point 22 :   0.3333 0.0000 0.3333  plane waves:    3280
 k-point 23 :   0.0000 0.1111 0.3333  plane waves:    3271
 k-point 24 :   0.3333 0.1111 0.3333  plane waves:    3284
 k-point 25 :   0.0000 0.2222 0.3333  plane waves:    3264
 k-point 26 :   0.3333 0.2222 0.3333  plane waves:    3271
 k-point 27 :   0.0000 0.3333 0.3333  plane waves:    3271
 k-point 28 :   0.3333 0.3333 0.3333  plane waves:    3249
 k-point 29 :   0.0000 0.4444 0.3333  plane waves:    3257
 k-point 30 :   0.3333 0.4444 0.3333  plane waves:    3261
 k-point 31 :   0.0000 0.0000 0.5000  plane waves:    3280
 k-point 32 :   0.3333 0.0000 0.5000  plane waves:    3274
 k-point 33 :   0.0000 0.1111 0.5000  plane waves:    3278
 k-point 34 :   0.3333 0.1111 0.5000  plane waves:    3262
 k-point 35 :   0.0000 0.2222 0.5000  plane waves:    3266
 k-point 36 :   0.3333 0.2222 0.5000  plane waves:    3280
 k-point 37 :   0.0000 0.3333 0.5000  plane waves:    3240
 k-point 38 :   0.3333 0.3333 0.5000  plane waves:    3262
 k-point 39 :   0.0000 0.4444 0.5000  plane waves:    3238
 k-point 40 :   0.3333 0.4444 0.5000  plane waves:    3236

 maximum and minimum number of plane-waves per node :       878      771

 maximum number of plane-waves:      3292
 maximum index in each direction: 
   IXMAX=   17   IYMAX=    5   IZMAX=    8
   IXMIN=  -17   IYMIN=   -5   IZMIN=   -8

 WARNING: aliasing errors must be expected set NGX to  70 to avoid them
 WARNING: aliasing errors must be expected set NGY to  22 to avoid them
 WARNING: aliasing errors must be expected set NGZ to  34 to avoid them
 aliasing errors are usually negligible using standard VASP settings
 and one can safely disregard these warnings

 parallel 3D FFT for wavefunctions:
    minimum data exchange during FFTs selected (reduces bandwidth)
 parallel 3D FFT for charge:
    minimum data exchange during FFTs selected (reduces bandwidth)


 total amount of memory used by VASP on root node    48069. kBytes
========================================================================

   base      :      30000. kBytes
   nonl-proj :       9744. kBytes
   fftplans  :        438. kBytes
   grid      :       1098. kBytes
   one-center:         93. kBytes
   wavefun   :       6696. kBytes
 
 initial charge density was supplied:
 number of electron      76.0000034 magnetization      -0.0000000
 keeping initial charge density in first step


--------------------------------------------------------------------------------------------------------


 Maximum index for augmentation-charges          427 (set IRDMAX)


--------------------------------------------------------------------------------------------------------


 First call to EWALD:  gamma=   0.358
 Maximum number of real-space cells 2x 4x 3
 Maximum number of reciprocal cells 5x 2x 3

 FEWALD executed in parallel
    FEWALD:  cpu time    0.00: real time    0.00


----------------------------------------- Iteration    1(   1)  ---------------------------------------


    POTLOK:  cpu time    0.01: real time    0.01
    SETDIJ:  cpu time    0.00: real time    0.01
     EDDAV:  cpu time    1.64: real time    1.64
 BZINTS: Fermi energy: 21.449758; 76.000000 electrons
         Band energy: 724.889098;  BLOECHL correction: -0.165512
       DOS:  cpu time    0.06: real time    0.06
    --------------------------------------------
      LOOP:  cpu time    1.72: real time    1.79

 eigenvalue-minimisations  :  7680
 total energy-change (2. order) : 0.9410413E+03  (-0.3557043E+04)
 number of electron      76.0000034 magnetization      -0.0000000
 augmentation part       76.0000034 magnetization      -0.0000000

 Free energy of the ion-electron system (eV)
  ---------------------------------------------------
  alpha Z        PSCENC =       313.42212463
  Ewald energy   TEWEN  =     -4121.06621684
  -1/2 Hartree   DENC   =     -1345.41071899
  -exchange  EXHF       =         0.00000000
  -V(xc)+E(xc)   XCENC  =       192.05279583
  PAW double counting   =      6562.51608420    -6495.93231139
  entropy T*S    EENTRO =         0.00000000
  eigenvalues    EBANDS =       724.88909778
  atomic energy  EATOM  =      5110.57042958
  ---------------------------------------------------
  free energy    TOTEN  =       941.04128480 eV

  energy without entropy =      941.04128480  energy(sigma->0) =      941.04128480


--------------------------------------------------------------------------------------------------------




----------------------------------------- Iteration    1(   2)  ---------------------------------------


     EDDAV:  cpu time    1.76: real time    1.76
 BZINTS: Fermi energy:  6.443141; 76.000000 electrons
         Band energy:-133.477630;  BLOECHL correction: -0.108131
       DOS:  cpu time    0.06: real time    0.06
    --------------------------------------------
      LOOP:  cpu time    1.82: real time    2.01

 eigenvalue-minimisations  :  8480
 total energy-change (2. order) :-0.8583667E+03  (-0.8093369E+03)
 number of electron      76.0000034 magnetization      -0.0000000
 augmentation part       76.0000034 magnetization      -0.0000000

 Free energy of the ion-electron system (eV)
  ---------------------------------------------------
  alpha Z        PSCENC =       313.42212463
  Ewald energy   TEWEN  =     -4121.06621684
  -1/2 Hartree   DENC   =     -1345.41071899
  -exchange  EXHF       =         0.00000000
  -V(xc)+E(xc)   XCENC  =       192.05279583
  PAW double counting   =      6562.51608420    -6495.93231139
  entropy T*S    EENTRO =         0.00000000
  eigenvalues    EBANDS =      -133.47762979
  atomic energy  EATOM  =      5110.57042958
  ---------------------------------------------------
  free energy    TOTEN  =        82.67455723 eV

  energy without entropy =       82.67455723  energy(sigma->0) =       82.67455723


--------------------------------------------------------------------------------------------------------




----------------------------------------- Iteration    1(   3)  ---------------------------------------


     EDDAV:  cpu time    1.89: real time    1.90
 BZINTS: Fermi energy:  4.218066; 76.000000 electrons
         Band energy:-284.989796;  BLOECHL correction: -0.028307
       DOS:  cpu time    0.06: real time    0.06
    --------------------------------------------
      LOOP:  cpu time    1.96: real time    2.05

 eigenvalue-minimisations  :  9408
 total energy-change (2. order) :-0.1515122E+03  (-0.1412950E+03)
 number of electron      76.0000034 magnetization      -0.0000000
 augmentation part       76.0000034 magnetization      -0.0000000

 Free energy of the ion-electron system (eV)
  ---------------------------------------------------
  alpha Z        PSCENC =       313.42212463
  Ewald energy   TEWEN  =     -4121.06621684
  -1/2 Hartree   DENC   =     -1345.41071899
  -exchange  EXHF       =         0.00000000
  -V(xc)+E(xc)   XCENC  =       192.05279583
  PAW double counting   =      6562.51608420    -6495.93231139
  entropy T*S    EENTRO =         0.00000000
  eigenvalues    EBANDS =      -284.98979620
  atomic energy  EATOM  =      5110.57042958
  ---------------------------------------------------
  free energy    TOTEN  =       -68.83760918 eV

  energy without entropy =      -68.83760918  energy(sigma->0) =      -68.83760918


--------------------------------------------------------------------------------------------------------




----------------------------------------- Iteration    1(   4)  ---------------------------------------


     EDDAV:  cpu time    2.47: real time    2.47
 BZINTS: Fermi energy:  2.719098; 76.000000 electrons
         Band energy:-304.725333;  BLOECHL correction:  0.000000
       DOS:  cpu time    0.01: real time    0.01
    --------------------------------------------
      LOOP:  cpu time    2.48: real time    2.58

 eigenvalue-minimisations  : 13104
 total energy-change (2. order) :-0.1973554E+02  (-0.1879250E+02)
 number of electron      76.0000034 magnetization      -0.0000000
 augmentation part       76.0000034 magnetization      -0.0000000

 Free energy of the ion-electron system (eV)
  ---------------------------------------------------
  alpha Z        PSCENC =       313.42212463
  Ewald energy   TEWEN  =     -4121.06621684
  -1/2 Hartree   DENC   =     -1345.41071899
  -exchange  EXHF       =         0.00000000
  -V(xc)+E(xc)   XCENC  =       192.05279583
  PAW double counting   =      6562.51608420    -6495.93231139
  entropy T*S    EENTRO =         0.00000000
  eigenvalues    EBANDS =      -304.72533257
  atomic energy  EATOM  =      5110.57042958
  ---------------------------------------------------
  free energy    TOTEN  =       -88.57314555 eV

  energy without entropy =      -88.57314555  energy(sigma->0) =      -88.57314555


--------------------------------------------------------------------------------------------------------




----------------------------------------- Iteration    1(   5)  ---------------------------------------


     EDDAV:  cpu time    2.18: real time    2.18
 BZINTS: Fermi energy:  2.294245; 76.000000 electrons
         Band energy:-305.617068;  BLOECHL correction:  0.000000
       DOS:  cpu time    0.01: real time    0.01
    --------------------------------------------
      LOOP:  cpu time    2.19: real time    2.38

 eigenvalue-minimisations  : 11336
 total energy-change (2. order) :-0.8917355E+00  (-0.8832538E+00)
 number of electron      76.0000034 magnetization      -0.0000000
 augmentation part       76.0000034 magnetization      -0.0000000

 Free energy of the ion-electron system (eV)
  ---------------------------------------------------
  alpha Z        PSCENC =       313.42212463
  Ewald energy   TEWEN  =     -4121.06621684
  -1/2 Hartree   DENC   =     -1345.41071899
  -exchange  EXHF       =         0.00000000
  -V(xc)+E(xc)   XCENC  =       192.05279583
  PAW double counting   =      6562.51608420    -6495.93231139
  entropy T*S    EENTRO =         0.00000000
  eigenvalues    EBANDS =      -305.61706806
  atomic energy  EATOM  =      5110.57042958
  ---------------------------------------------------
  free energy    TOTEN  =       -89.46488104 eV

  energy without entropy =      -89.46488104  energy(sigma->0) =      -89.46488104


--------------------------------------------------------------------------------------------------------




----------------------------------------- Iteration    1(   6)  ---------------------------------------


     EDDAV:  cpu time    2.29: real time    2.29
 BZINTS: Fermi energy:  2.248606; 76.000000 electrons
         Band energy:-305.646586;  BLOECHL correction:  0.000000
       DOS:  cpu time    0.01: real time    0.01
    --------------------------------------------
      LOOP:  cpu time    2.30: real time    2.39

 eigenvalue-minimisations  : 12088
 total energy-change (2. order) :-0.2951786E-01  (-0.2947484E-01)
 number of electron      76.0000034 magnetization      -0.0000000
 augmentation part       76.0000034 magnetization      -0.0000000

 Free energy of the ion-electron system (eV)
  ---------------------------------------------------
  alpha Z        PSCENC =       313.42212463
  Ewald energy   TEWEN  =     -4121.06621684
  -1/2 Hartree   DENC   =     -1345.41071899
  -exchange  EXHF       =         0.00000000
  -V(xc)+E(xc)   XCENC  =       192.05279583
  PAW double counting   =      6562.51608420    -6495.93231139
  entropy T*S    EENTRO =         0.00000000
  eigenvalues    EBANDS =      -305.64658592
  atomic energy  EATOM  =      5110.57042958
  ---------------------------------------------------
  free energy    TOTEN  =       -89.49439890 eV

  energy without entropy =      -89.49439890  energy(sigma->0) =      -89.49439890


--------------------------------------------------------------------------------------------------------




----------------------------------------- Iteration    1(   7)  ---------------------------------------


     EDDAV:  cpu time    2.16: real time    2.16
 BZINTS: Fermi energy:  2.285929; 76.000000 electrons
         Band energy:-305.647513;  BLOECHL correction:  0.000000
       DOS:  cpu time    0.01: real time    0.01
    --------------------------------------------
      LOOP:  cpu time    2.18: real time    2.38

 eigenvalue-minimisations  : 11176
 total energy-change (2. order) :-0.9275303E-03  (-0.9272350E-03)
 number of electron      76.0000034 magnetization      -0.0000000
 augmentation part       76.0000034 magnetization      -0.0000000

 Free energy of the ion-electron system (eV)
  ---------------------------------------------------
  alpha Z        PSCENC =       313.42212463
  Ewald energy   TEWEN  =     -4121.06621684
  -1/2 Hartree   DENC   =     -1345.41071899
  -exchange  EXHF       =         0.00000000
  -V(xc)+E(xc)   XCENC  =       192.05279583
  PAW double counting   =      6562.51608420    -6495.93231139
  entropy T*S    EENTRO =         0.00000000
  eigenvalues    EBANDS =      -305.64751345
  atomic energy  EATOM  =      5110.57042958
  ---------------------------------------------------
  free energy    TOTEN  =       -89.49532643 eV

  energy without entropy =      -89.49532643  energy(sigma->0) =      -89.49532643


--------------------------------------------------------------------------------------------------------




----------------------------------------- Iteration    1(   8)  ---------------------------------------


     EDDAV:  cpu time    1.71: real time    1.71
 BZINTS: Fermi energy:  2.282936; 76.000000 electrons
         Band energy:-305.647549;  BLOECHL correction:  0.000000
       DOS:  cpu time    0.01: real time    0.01
    --------------------------------------------
      LOOP:  cpu time    1.72: real time    1.82

 eigenvalue-minimisations  :  7872
 total energy-change (2. order) :-0.3546150E-04  (-0.3545883E-04)
 number of electron      76.0000034 magnetization      -0.0000000
 augmentation part       76.0000034 magnetization      -0.0000000

 Free energy of the ion-electron system (eV)
  ---------------------------------------------------
  alpha Z        PSCENC =       313.42212463
  Ewald energy   TEWEN  =     -4121.06621684
  -1/2 Hartree   DENC   =     -1345.41071899
  -exchange  EXHF       =         0.00000000
  -V(xc)+E(xc)   XCENC  =       192.05279583
  PAW double counting   =      6562.51608420    -6495.93231139
  entropy T*S    EENTRO =         0.00000000
  eigenvalues    EBANDS =      -305.64754891
  atomic energy  EATOM  =      5110.57042958
  ---------------------------------------------------
  free energy    TOTEN  =       -89.49536189 eV

  energy without entropy =      -89.49536189  energy(sigma->0) =      -89.49536189


--------------------------------------------------------------------------------------------------------




 average (electrostatic) potential at core
  the test charge radii are     1.0210  0.7215
  (the norm of the test charge is              1.0000)
       1 -47.9344       2 -47.9344       3 -47.9344       4 -47.9344       5 -71.9886
       6 -71.9886       7 -71.9886       8 -71.9886       9 -72.2053      10 -72.2053
      11 -72.2053      12 -72.2053
 
 
 
 E-fermi :   2.2829     XC(G=0): -11.4410     alpha+bet :-10.5043


 spin component 1

 k-point   1 :       0.0000    0.0000    0.0000
  band No.  band energies     occupation 
      1     -16.6880      1.00000
      2     -16.0728      1.00000
      3     -15.7547      1.00000
      4     -14.9243      1.00000
      5     -14.6631      1.00000
      6     -14.5810      1.00000
      7     -14.4971      1.00000
      8     -14.4675      1.00000
      9      -4.7108      1.00000
     10      -4.3353      1.00000
     11      -3.6842      1.00000
     12      -3.6235      1.00000
     13      -3.1836      1.00000
     14      -2.8925      1.00000
     15      -2.8620      1.00000
     16      -2.7581      1.00000
     17      -2.5026      1.00000
     18      -2.1044      1.00000
     19      -2.0654      1.00000
     20      -1.9797      1.00000
     21      -1.6576      1.00000
     22      -0.9848      1.00000
     23      -0.7513      1.00000
     24      -0.6929      1.00000
     25      -0.5102      1.00000
     26      -0.3613      1.00000
     27      -0.2233      1.00000
     28       0.0162      1.00000
     29       0.4863      1.00000
     30       0.5470      1.00000
     31       0.8203      1.00000
     32       0.9661      1.00000
     33       1.0958      1.00000
     34       1.4458      1.00000
     35       1.5397      1.00000
     36       1.8364      1.00000
     37       2.0764      1.00000
     38       2.2476      1.00000
     39       4.1599      0.00000
     40       4.2102      0.00000
     41       4.2335      0.00000
     42       5.0688      0.00000
     43       5.0981      0.00000
     44       5.1034      0.00000
     45       5.5707      0.00000
     46       5.9850      0.00000
     47       6.0113      0.00000
     48       6.2664      0.00000

 k-point   2 :       0.3333    0.0000    0.0000
  band No.  band energies     occupation 
      1     -16.5958      1.00000
      2     -16.3393      1.00000
      3     -15.4429      1.00000
      4     -15.0838      1.00000
      5     -14.6327      1.00000
      6     -14.5971      1.00000
      7     -14.4869      1.00000
      8     -14.4726      1.00000
      9      -4.5796      1.00000
     10      -4.3884      1.00000
     11      -3.6653      1.00000
     12      -3.6190      1.00000
     13      -3.2008      1.00000
     14      -3.0424      1.00000
     15      -2.8848      1.00000
     16      -2.8696      1.00000
     17      -2.4390      1.00000
     18      -2.2632      1.00000
     19      -1.9926      1.00000
     20      -1.9366      1.00000
     21      -1.4121      1.00000
     22      -0.9933      1.00000
     23      -0.8576      1.00000
     24      -0.8327      1.00000
     25      -0.4216      1.00000
     26      -0.3829      1.00000
     27       0.0436      1.00000
     28       0.0648      1.00000
     29       0.3561      1.00000
     30       0.3664      1.00000
     31       1.0841      1.00000
     32       1.1840      1.00000
     33       1.2474      1.00000
     34       1.3559      1.00000
     35       1.5777      1.00000
     36       1.6396      1.00000
     37       1.8574      1.00000
     38       2.0587      1.00000
     39       4.2342      0.00000
     40       4.2699      0.00000
     41       4.3794      0.00000
     42       4.7774      0.00000
     43       5.0847      0.00000
     44       5.1033      0.00000
     45       5.8498      0.00000
     46       5.9868      0.00000
     47       5.9992      0.00000
     48       6.1513      0.00000

 k-point   3 :       0.0000    0.1111    0.0000
  band No.  band energies     occupation 
      1     -16.5721      1.00000
      2     -15.9844      1.00000
      3     -15.6676      1.00000
      4     -14.8890      1.00000
      5     -14.6709      1.00000
      6     -14.5915      1.00000
      7     -14.5270      1.00000
      8     -14.4896      1.00000
      9      -4.5335      1.00000
     10      -4.1713      1.00000
     11      -3.5981      1.00000
     12      -3.5359      1.00000
     13      -3.2180      1.00000
     14      -2.9717      1.00000
     15      -2.9222      1.00000
     16      -2.7518      1.00000
     17      -2.6785      1.00000
     18      -2.4640      1.00000
     19      -1.9481      1.00000
     20      -1.6974      1.00000
     21      -1.4911      1.00000
     22      -1.0937      1.00000
     23      -0.8605      1.00000
     24      -0.7353      1.00000
     25      -0.5630      1.00000
     26      -0.3669      1.00000
     27      -0.3498      1.00000
     28      -0.1907      1.00000
     29       0.3361      1.00000
     30       0.5931      1.00000
     31       0.7567      1.00000
     32       0.7725      1.00000
     33       1.1384      1.00000
     34       1.3376      1.00000
     35       1.6369      1.00000
     36       1.6726      1.00000
     37       2.0322      1.00000
     38       2.1605      1.00000
     39       3.9699      0.00000
     40       4.2914      0.00000
     41       4.3874      0.00000
     42       4.8150      0.00000
     43       5.2978      0.00000
     44       5.3412      0.00000
     45       5.5834      0.00000
     46       5.8995      0.00000
     47       5.9453      0.00000
     48       6.1779      0.00000

 k-point   4 :       0.3333    0.1111    0.0000
  band No.  band energies     occupation 
      1     -16.4833      1.00000
      2     -16.2368      1.00000
      3     -15.3748      1.00000
      4     -15.0374      1.00000
      5     -14.6431      1.00000
      6     -14.6090      1.00000
      7     -14.5137      1.00000
      8     -14.4961      1.00000
      9      -4.4069      1.00000
     10      -4.2222      1.00000
     11      -3.6000      1.00000
     12      -3.5486      1.00000
     13      -3.1678      1.00000
     14      -3.0190      1.00000
     15      -2.9359      1.00000
     16      -2.8636      1.00000
     17      -2.7095      1.00000
     18      -2.6483      1.00000
     19      -1.6421      1.00000
     20      -1.6284      1.00000
     21      -1.4824      1.00000
     22      -1.1885      1.00000
     23      -0.9090      1.00000
     24      -0.9011      1.00000
     25      -0.4162      1.00000
     26      -0.4023      1.00000
     27      -0.1546      1.00000
     28      -0.1278      1.00000
     29       0.3357      1.00000
     30       0.4295      1.00000
     31       0.6931      1.00000
     32       0.8228      1.00000
     33       1.3062      1.00000
     34       1.3193      1.00000
     35       1.7076      1.00000
     36       1.7185      1.00000
     37       1.8784      1.00000
     38       2.0030      1.00000
     39       4.1126      0.00000
     40       4.2912      0.00000
     41       4.4094      0.00000
     42       4.5816      0.00000
     43       5.3166      0.00000
     44       5.3450      0.00000
     45       5.7596      0.00000
     46       5.8881      0.00000
     47       5.9569      0.00000
     48       6.0813      0.00000

 k-point   5 :       0.0000    0.2222    0.0000
  band No.  band energies     occupation 
      1     -16.2506      1.00000
      2     -15.7476      1.00000
      3     -15.4360      1.00000
      4     -14.8217      1.00000
      5     -14.6904      1.00000
      6     -14.6339      1.00000
      7     -14.5983      1.00000
      8     -14.5446      1.00000
      9      -4.0488      1.00000
     10      -3.7473      1.00000
     11      -3.4653      1.00000
     12      -3.3380      1.00000
     13      -3.3271      1.00000
     14      -3.2703      1.00000
     15      -3.1562      1.00000
     16      -2.7938      1.00000
     17      -2.6304      1.00000
     18      -2.4601      1.00000
     19      -1.8770      1.00000
     20      -1.7919      1.00000
     21      -1.6838      1.00000
     22      -1.2322      1.00000
     23      -1.2127      1.00000
     24      -0.8400      1.00000
     25      -0.8163      1.00000
     26      -0.5182      1.00000
     27      -0.0896      1.00000
     28      -0.0332      1.00000
     29       0.0487      1.00000
     30       0.2803      1.00000
     31       0.4987      1.00000
     32       0.6399      1.00000
     33       1.0965      1.00000
     34       1.1033      1.00000
     35       1.3254      1.00000
     36       1.7253      1.00000
     37       1.8394      1.00000
     38       1.9714      1.00000
     39       3.9214      0.00000
     40       4.2430      0.00000
     41       4.3623      0.00000
     42       4.4617      0.00000
     43       5.5382      0.00000
     44       5.6751      0.00000
     45       5.7071      0.00000
     46       5.7229      0.00000
     47       5.8375      0.00000
     48       6.0947      0.00000

 k-point   6 :       0.3333    0.2222    0.0000
  band No.  band energies     occupation 
      1     -16.1721      1.00000
      2     -15.9570      1.00000
      3     -15.2001      1.00000
      4     -14.9303      1.00000
      5     -14.6784      1.00000
      6     -14.6541      1.00000
      7     -14.5779      1.00000
      8     -14.5541      1.00000
      9      -3.9482      1.00000
     10      -3.7956      1.00000
     11      -3.4855      1.00000
     12      -3.4076      1.00000
     13      -3.3175      1.00000
     14      -3.2694      1.00000
     15      -3.0398      1.00000
     16      -2.8873      1.00000
     17      -2.6567      1.00000
     18      -2.5632      1.00000
     19      -1.7707      1.00000
     20      -1.7374      1.00000
     21      -1.6283      1.00000
     22      -1.2592      1.00000
     23      -1.1378      1.00000
     24      -1.1060      1.00000
     25      -0.5251      1.00000
     26      -0.4741      1.00000
     27      -0.3020      1.00000
     28      -0.1480      1.00000
     29       0.1458      1.00000
     30       0.2461      1.00000
     31       0.4527      1.00000
     32       0.5690      1.00000
     33       1.1154      1.00000
     34       1.1758      1.00000
     35       1.5439      1.00000
     36       1.6970      1.00000
     37       1.8559      1.00000
     38       1.9224      1.00000
     39       3.9829      0.00000
     40       4.1468      0.00000
     41       4.3329      0.00000
     42       4.3702      0.00000
     43       5.6310      0.00000
     44       5.6783      0.00000
     45       5.7125      0.00000
     46       5.7176      0.00000
     47       5.8812      0.00000
     48       6.0197      0.00000

 k-point   7 :       0.0000    0.3333    0.0000
  band No.  band energies     occupation 
      1     -15.7997      1.00000
      2     -15.4390      1.00000
      3     -15.1412      1.00000
      4     -14.8246      1.00000
      5     -14.7543      1.00000
      6     -14.7126      1.00000
      7     -14.6511      1.00000
      8     -14.5998      1.00000
      9      -3.9489      1.00000
     10      -3.7477      1.00000
     11      -3.5215      1.00000
     12      -3.3210      1.00000
     13      -3.1432      1.00000
     14      -3.0757      1.00000
     15      -2.9053      1.00000
     16      -2.6813      1.00000
     17      -2.4949      1.00000
     18      -2.4742      1.00000
     19      -2.3376      1.00000
     20      -1.8995      1.00000
     21      -1.6282      1.00000
     22      -1.4612      1.00000
     23      -1.0910      1.00000
     24      -0.9218      1.00000
     25      -0.7782      1.00000
     26      -0.7104      1.00000
     27      -0.4544      1.00000
     28      -0.2063      1.00000
     29      -0.0450      1.00000
     30       0.2272      1.00000
     31       0.3934      1.00000
     32       0.4586      1.00000
     33       0.7750      1.00000
     34       0.8074      1.00000
     35       1.1021      1.00000
     36       1.5034      1.00000
     37       1.7121      1.00000
     38       1.7246      1.00000
     39       3.9446      0.00000
     40       4.0066      0.00000
     41       4.2235      0.00000
     42       4.4729      0.00000
     43       5.5610      0.00000
     44       5.5765      0.00000
     45       5.6307      0.00000
     46       5.7654      0.00000
     47       5.8222      0.00000
     48       6.1015      0.00000

 k-point   8 :       0.3333    0.3333    0.0000
  band No.  band energies     occupation 
      1     -15.7397      1.00000
      2     -15.5794      1.00000
      3     -14.9930      1.00000
      4     -14.8430      1.00000
      5     -14.7642      1.00000
      6     -14.7541      1.00000
      7     -14.6366      1.00000
      8     -14.6122      1.00000
      9      -3.9224      1.00000
     10      -3.8288      1.00000
     11      -3.4217      1.00000
     12      -3.3128      1.00000
     13      -3.1861      1.00000
     14      -3.1534      1.00000
     15      -2.8392      1.00000
     16      -2.7204      1.00000
     17      -2.4865      1.00000
     18      -2.4289      1.00000
     19      -2.2161      1.00000
     20      -2.0041      1.00000
     21      -1.6669      1.00000
     22      -1.4958      1.00000
     23      -0.9926      1.00000
     24      -0.8911      1.00000
     25      -0.8067      1.00000
     26      -0.7047      1.00000
     27      -0.4492      1.00000
     28      -0.3435      1.00000
     29      -0.0167      1.00000
     30       0.1838      1.00000
     31       0.3482      1.00000
     32       0.4469      1.00000
     33       0.7790      1.00000
     34       0.7997      1.00000
     35       1.2742      1.00000
     36       1.4805      1.00000
     37       1.7345      1.00000
     38       1.7631      1.00000
     39       3.9481      0.00000
     40       3.9658      0.00000
     41       4.2359      0.00000
     42       4.3687      0.00000
     43       5.5742      0.00000
     44       5.5784      0.00000
     45       5.6944      0.00000
     46       5.7517      0.00000
     47       5.8754      0.00000
     48       6.0495      0.00000

 k-point   9 :       0.0000    0.4444    0.0000
  band No.  band energies     occupation 
      1     -15.3389      1.00000
      2     -15.1493      1.00000
      3     -14.9901      1.00000
      4     -14.9301      1.00000
      5     -14.8803      1.00000
      6     -14.7269      1.00000
      7     -14.7206      1.00000
      8     -14.6373      1.00000
      9      -4.3288      1.00000
     10      -3.9006      1.00000
     11      -3.6466      1.00000
     12      -3.5101      1.00000
     13      -2.8730      1.00000
     14      -2.7456      1.00000
     15      -2.5974      1.00000
     16      -2.4950      1.00000
     17      -2.4032      1.00000
     18      -2.3086      1.00000
     19      -2.1098      1.00000
     20      -1.9050      1.00000
     21      -1.5078      1.00000
     22      -1.4795      1.00000
     23      -1.1614      1.00000
     24      -1.0558      1.00000
     25      -0.9307      1.00000
     26      -0.6219      1.00000
     27      -0.5311      1.00000
     28      -0.4950      1.00000
     29      -0.1507      1.00000
     30      -0.0492      1.00000
     31       0.1336      1.00000
     32       0.3222      1.00000
     33       0.4317      1.00000
     34       0.5809      1.00000
     35       1.0317      1.00000
     36       1.4368      1.00000
     37       1.5074      1.00000
     38       1.6698      1.00000
     39       3.9486      0.00000
     40       3.9802      0.00000
     41       4.1798      0.00000
     42       4.4594      0.00000
     43       5.4641      0.00000
     44       5.4728      0.00000
     45       5.6022      0.00000
     46       5.6323      0.00000
     47       5.7631      0.00000
     48       6.1263      0.00000

 k-point  10 :       0.3333    0.4444    0.0000
  band No.  band energies     occupation 
      1     -15.3037      1.00000
      2     -15.2149      1.00000
      3     -14.9758      1.00000
      4     -14.9433      1.00000
      5     -14.8257      1.00000
      6     -14.7482      1.00000
      7     -14.7026      1.00000
      8     -14.6590      1.00000
      9      -4.2404      1.00000
     10      -4.0305      1.00000
     11      -3.5675      1.00000
     12      -3.4831      1.00000
     13      -2.9934      1.00000
     14      -2.9075      1.00000
     15      -2.5314      1.00000
     16      -2.4712      1.00000
     17      -2.3360      1.00000
     18      -2.3349      1.00000
     19      -2.0578      1.00000
     20      -1.9510      1.00000
     21      -1.4088      1.00000
     22      -1.2927      1.00000
     23      -1.1900      1.00000
     24      -1.1336      1.00000
     25      -0.8358      1.00000
     26      -0.6772      1.00000
     27      -0.5258      1.00000
     28      -0.5249      1.00000
     29      -0.2249      1.00000
     30      -0.1457      1.00000
     31       0.1450      1.00000
     32       0.2640      1.00000
     33       0.4961      1.00000
     34       0.5450      1.00000
     35       1.1246      1.00000
     36       1.3312      1.00000
     37       1.5939      1.00000
     38       1.6678      1.00000
     39       4.0040      0.00000
     40       4.0361      0.00000
     41       4.1570      0.00000
     42       4.3432      0.00000
     43       5.4837      0.00000
     44       5.4879      0.00000
     45       5.5950      0.00000
     46       5.6210      0.00000
     47       5.8605      0.00000
     48       6.0419      0.00000

 k-point  11 :       0.0000    0.0000    0.1667
  band No.  band energies     occupation 
      1     -16.6245      1.00000
      2     -16.0768      1.00000
      3     -15.7010      1.00000
      4     -14.9776      1.00000
      5     -14.6635      1.00000
      6     -14.6015      1.00000
      7     -14.5380      1.00000
      8     -14.5097      1.00000
      9      -4.6831      1.00000
     10      -4.3245      1.00000
     11      -3.6647      1.00000
     12      -3.5151      1.00000
     13      -3.2043      1.00000
     14      -2.8889      1.00000
     15      -2.8640      1.00000
     16      -2.7807      1.00000
     17      -2.5128      1.00000
     18      -2.2544      1.00000
     19      -2.1169      1.00000
     20      -1.6744      1.00000
     21      -1.6594      1.00000
     22      -1.0220      1.00000
     23      -0.7587      1.00000
     24      -0.6936      1.00000
     25      -0.4499      1.00000
     26      -0.3063      1.00000
     27      -0.1606      1.00000
     28      -0.0061      1.00000
     29       0.4377      1.00000
     30       0.5225      1.00000
     31       0.8515      1.00000
     32       1.0622      1.00000
     33       1.0924      1.00000
     34       1.4002      1.00000
     35       1.4241      1.00000
     36       1.7798      1.00000
     37       1.8654      1.00000
     38       2.1986      1.00000
     39       4.0694      0.00000
     40       4.2045      0.00000
     41       4.2516      0.00000
     42       5.0948      0.00000
     43       5.1273      0.00000
     44       5.1622      0.00000
     45       5.5666      0.00000
     46       5.9934      0.00000
     47       6.0445      0.00000
     48       6.2727      0.00000

 k-point  12 :       0.3333    0.0000    0.1667
  band No.  band energies     occupation 
      1     -16.5387      1.00000
      2     -16.3031      1.00000
      3     -15.4363      1.00000
      4     -15.1155      1.00000
      5     -14.6417      1.00000
      6     -14.6137      1.00000
      7     -14.5298      1.00000
      8     -14.5160      1.00000
      9      -4.5700      1.00000
     10      -4.3883      1.00000
     11      -3.6483      1.00000
     12      -3.4983      1.00000
     13      -3.2334      1.00000
     14      -3.0141      1.00000
     15      -2.8818      1.00000
     16      -2.8692      1.00000
     17      -2.4514      1.00000
     18      -2.2770      1.00000
     19      -2.0584      1.00000
     20      -1.7796      1.00000
     21      -1.4091      1.00000
     22      -0.9852      1.00000
     23      -0.8745      1.00000
     24      -0.7993      1.00000
     25      -0.4275      1.00000
     26      -0.3452      1.00000
     27       0.0913      1.00000
     28       0.0995      1.00000
     29       0.3252      1.00000
     30       0.3954      1.00000
     31       0.9205      1.00000
     32       1.1481      1.00000
     33       1.2552      1.00000
     34       1.3142      1.00000
     35       1.4317      1.00000
     36       1.5980      1.00000
     37       1.9057      1.00000
     38       2.0440      1.00000
     39       4.1479      0.00000
     40       4.2372      0.00000
     41       4.3723      0.00000
     42       4.7706      0.00000
     43       5.1366      0.00000
     44       5.1551      0.00000
     45       5.8502      0.00000
     46       5.9977      0.00000
     47       6.0287      0.00000
     48       6.1542      0.00000

 k-point  13 :       0.0000    0.1111    0.1667
  band No.  band energies     occupation 
      1     -16.5107      1.00000
      2     -15.9873      1.00000
      3     -15.6163      1.00000
      4     -14.9363      1.00000
      5     -14.6722      1.00000
      6     -14.6106      1.00000
      7     -14.5634      1.00000
      8     -14.5335      1.00000
      9      -4.5083      1.00000
     10      -4.1637      1.00000
     11      -3.5978      1.00000
     12      -3.4484      1.00000
     13      -3.2445      1.00000
     14      -2.9697      1.00000
     15      -2.9201      1.00000
     16      -2.7791      1.00000
     17      -2.6816      1.00000
     18      -2.5046      1.00000
     19      -1.9861      1.00000
     20      -1.6440      1.00000
     21      -1.3215      1.00000
     22      -1.0658      1.00000
     23      -0.8980      1.00000
     24      -0.7356      1.00000
     25      -0.6356      1.00000
     26      -0.3468      1.00000
     27      -0.1824      1.00000
     28      -0.1458      1.00000
     29       0.1815      1.00000
     30       0.6945      1.00000
     31       0.7259      1.00000
     32       0.8307      1.00000
     33       1.1523      1.00000
     34       1.2261      1.00000
     35       1.4152      1.00000
     36       1.7724      1.00000
     37       1.8894      1.00000
     38       2.1265      1.00000
     39       3.9491      0.00000
     40       4.2922      0.00000
     41       4.3561      0.00000
     42       4.8237      0.00000
     43       5.3254      0.00000
     44       5.3843      0.00000
     45       5.5831      0.00000
     46       5.9104      0.00000
     47       5.9538      0.00000
     48       6.1744      0.00000

 k-point  14 :       0.3333    0.1111    0.1667
  band No.  band energies     occupation 
      1     -16.4281      1.00000
      2     -16.2018      1.00000
      3     -15.3675      1.00000
      4     -15.0655      1.00000
      5     -14.6513      1.00000
      6     -14.6237      1.00000
      7     -14.5543      1.00000
      8     -14.5400      1.00000
      9      -4.3998      1.00000
     10      -4.2250      1.00000
     11      -3.5937      1.00000
     12      -3.4592      1.00000
     13      -3.2118      1.00000
     14      -3.0262      1.00000
     15      -2.9239      1.00000
     16      -2.8508      1.00000
     17      -2.7147      1.00000
     18      -2.6187      1.00000
     19      -1.7264      1.00000
     20      -1.5207      1.00000
     21      -1.4223      1.00000
     22      -1.1767      1.00000
     23      -0.9241      1.00000
     24      -0.8854      1.00000
     25      -0.4414      1.00000
     26      -0.3335      1.00000
     27      -0.1611      1.00000
     28      -0.0199      1.00000
     29       0.2548      1.00000
     30       0.4521      1.00000
     31       0.6830      1.00000
     32       0.7952      1.00000
     33       1.1963      1.00000
     34       1.3576      1.00000
     35       1.5421      1.00000
     36       1.6832      1.00000
     37       1.8725      1.00000
     38       1.9941      1.00000
     39       4.0948      0.00000
     40       4.2678      0.00000
     41       4.3905      0.00000
     42       4.6023      0.00000
     43       5.3524      0.00000
     44       5.3780      0.00000
     45       5.7528      0.00000
     46       5.8945      0.00000
     47       5.9601      0.00000
     48       6.0796      0.00000

 k-point  15 :       0.0000    0.2222    0.1667
  band No.  band energies     occupation 
      1     -16.1957      1.00000
      2     -15.7478      1.00000
      3     -15.3919      1.00000
      4     -14.8497      1.00000
      5     -14.6955      1.00000
      6     -14.6517      1.00000
      7     -14.6244      1.00000
      8     -14.5889      1.00000
      9      -4.0327      1.00000
     10      -3.7570      1.00000
     11      -3.4973      1.00000
     12      -3.4626      1.00000
     13      -3.3135      1.00000
     14      -3.2259      1.00000
     15      -3.1502      1.00000
     16      -2.7240      1.00000
     17      -2.6069      1.00000
     18      -2.5044      1.00000
     19      -1.9349      1.00000
     20      -1.7390      1.00000
     21      -1.6502      1.00000
     22      -1.3469      1.00000
     23      -0.9439      1.00000
     24      -0.8430      1.00000
     25      -0.8014      1.00000
     26      -0.4976      1.00000
     27      -0.1946      1.00000
     28      -0.0193      1.00000
     29       0.1241      1.00000
     30       0.3011      1.00000
     31       0.4543      1.00000
     32       0.7291      1.00000
     33       0.9321      1.00000
     34       1.1252      1.00000
     35       1.2601      1.00000
     36       1.7698      1.00000
     37       1.8248      1.00000
     38       1.9642      1.00000
     39       3.9331      0.00000
     40       4.1486      0.00000
     41       4.4317      0.00000
     42       4.4905      0.00000
     43       5.4938      0.00000
     44       5.6532      0.00000
     45       5.7246      0.00000
     46       5.7463      0.00000
     47       5.8339      0.00000
     48       6.0678      0.00000

 k-point  16 :       0.3333    0.2222    0.1667
  band No.  band energies     occupation 
      1     -16.1229      1.00000
      2     -15.9261      1.00000
      3     -15.1911      1.00000
      4     -14.9480      1.00000
      5     -14.6842      1.00000
      6     -14.6644      1.00000
      7     -14.6131      1.00000
      8     -14.5965      1.00000
      9      -3.9464      1.00000
     10      -3.8074      1.00000
     11      -3.4991      1.00000
     12      -3.4661      1.00000
     13      -3.3398      1.00000
     14      -3.2914      1.00000
     15      -3.0399      1.00000
     16      -2.8287      1.00000
     17      -2.6261      1.00000
     18      -2.5179      1.00000
     19      -1.8288      1.00000
     20      -1.7302      1.00000
     21      -1.5735      1.00000
     22      -1.2607      1.00000
     23      -1.2064      1.00000
     24      -0.9819      1.00000
     25      -0.5295      1.00000
     26      -0.3934      1.00000
     27      -0.2839      1.00000
     28      -0.1088      1.00000
     29       0.1140      1.00000
     30       0.2168      1.00000
     31       0.4684      1.00000
     32       0.6330      1.00000
     33       1.0547      1.00000
     34       1.1887      1.00000
     35       1.4248      1.00000
     36       1.6959      1.00000
     37       1.8125      1.00000
     38       1.9051      1.00000
     39       4.0191      0.00000
     40       4.1724      0.00000
     41       4.3334      0.00000
     42       4.4019      0.00000
     43       5.5721      0.00000
     44       5.6422      0.00000
     45       5.7285      0.00000
     46       5.7398      0.00000
     47       5.8770      0.00000
     48       6.0070      0.00000

 k-point  17 :       0.0000    0.3333    0.1667
  band No.  band energies     occupation 
      1     -15.7569      1.00000
      2     -15.4364      1.00000
      3     -15.1100      1.00000
      4     -14.8273      1.00000
      5     -14.7719      1.00000
      6     -14.7146      1.00000
      7     -14.6798      1.00000
      8     -14.6282      1.00000
      9      -3.9883      1.00000
     10      -3.8128      1.00000
     11      -3.5108      1.00000
     12      -3.3905      1.00000
     13      -3.1610      1.00000
     14      -3.0764      1.00000
     15      -2.9352      1.00000
     16      -2.6636      1.00000
     17      -2.4866      1.00000
     18      -2.4177      1.00000
     19      -2.2891      1.00000
     20      -1.9995      1.00000
     21      -1.6625      1.00000
     22      -1.4567      1.00000
     23      -1.1127      1.00000
     24      -0.8709      1.00000
     25      -0.7458      1.00000
     26      -0.5485      1.00000
     27      -0.4356      1.00000
     28      -0.2179      1.00000
     29      -0.1721      1.00000
     30       0.2574      1.00000
     31       0.3188      1.00000
     32       0.5440      1.00000
     33       0.7952      1.00000
     34       0.9144      1.00000
     35       1.0952      1.00000
     36       1.5552      1.00000
     37       1.6711      1.00000
     38       1.7899      1.00000
     39       3.9241      0.00000
     40       4.0281      0.00000
     41       4.2966      0.00000
     42       4.4670      0.00000
     43       5.5111      0.00000
     44       5.5664      0.00000
     45       5.6216      0.00000
     46       5.7391      0.00000
     47       5.8479      0.00000
     48       6.0522      0.00000

 k-point  18 :       0.3333    0.3333    0.1667
  band No.  band energies     occupation 
      1     -15.7015      1.00000
      2     -15.5563      1.00000
      3     -14.9845      1.00000
      4     -14.8492      1.00000
      5     -14.7766      1.00000
      6     -14.7542      1.00000
      7     -14.6627      1.00000
      8     -14.6401      1.00000
      9      -3.9580      1.00000
     10      -3.8736      1.00000
     11      -3.4488      1.00000
     12      -3.3615      1.00000
     13      -3.2246      1.00000
     14      -3.1438      1.00000
     15      -2.8738      1.00000
     16      -2.7138      1.00000
     17      -2.4630      1.00000
     18      -2.3659      1.00000
     19      -2.2162      1.00000
     20      -2.0542      1.00000
     21      -1.6408      1.00000
     22      -1.4911      1.00000
     23      -1.0865      1.00000
     24      -0.9231      1.00000
     25      -0.7229      1.00000
     26      -0.6032      1.00000
     27      -0.4525      1.00000
     28      -0.2900      1.00000
     29      -0.0200      1.00000
     30       0.1839      1.00000
     31       0.3451      1.00000
     32       0.4876      1.00000
     33       0.7991      1.00000
     34       0.8572      1.00000
     35       1.2783      1.00000
     36       1.5119      1.00000
     37       1.7256      1.00000
     38       1.7584      1.00000
     39       3.9429      0.00000
     40       4.0405      0.00000
     41       4.2740      0.00000
     42       4.3769      0.00000
     43       5.5403      0.00000
     44       5.5611      0.00000
     45       5.6558      0.00000
     46       5.7187      0.00000
     47       5.8960      0.00000
     48       5.9999      0.00000

 k-point  19 :       0.0000    0.4444    0.1667
  band No.  band energies     occupation 
      1     -15.3139      1.00000
      2     -15.1480      1.00000
      3     -14.9822      1.00000
      4     -14.9323      1.00000
      5     -14.8700      1.00000
      6     -14.7352      1.00000
      7     -14.7289      1.00000
      8     -14.6519      1.00000
      9      -4.3525      1.00000
     10      -3.9726      1.00000
     11      -3.6829      1.00000
     12      -3.4908      1.00000
     13      -2.9134      1.00000
     14      -2.7718      1.00000
     15      -2.6721      1.00000
     16      -2.5066      1.00000
     17      -2.4457      1.00000
     18      -2.3723      1.00000
     19      -2.0734      1.00000
     20      -1.8677      1.00000
     21      -1.5804      1.00000
     22      -1.4199      1.00000
     23      -1.2095      1.00000
     24      -1.0260      1.00000
     25      -0.9174      1.00000
     26      -0.6284      1.00000
     27      -0.6039      1.00000
     28      -0.4013      1.00000
     29      -0.1750      1.00000
     30      -0.0674      1.00000
     31       0.2105      1.00000
     32       0.4273      1.00000
     33       0.5092      1.00000
     34       0.6964      1.00000
     35       1.1074      1.00000
     36       1.4470      1.00000
     37       1.5441      1.00000
     38       1.6879      1.00000
     39       3.9591      0.00000
     40       4.0192      0.00000
     41       4.1977      0.00000
     42       4.5133      0.00000
     43       5.4367      0.00000
     44       5.4607      0.00000
     45       5.6100      0.00000
     46       5.6234      0.00000
     47       5.7527      0.00000
     48       6.0612      0.00000

 k-point  20 :       0.3333    0.4444    0.1667
  band No.  band energies     occupation 
      1     -15.2821      1.00000
      2     -15.2033      1.00000
      3     -14.9716      1.00000
      4     -14.9448      1.00000
      5     -14.8216      1.00000
      6     -14.7548      1.00000
      7     -14.7119      1.00000
      8     -14.6723      1.00000
      9      -4.2720      1.00000
     10      -4.0851      1.00000
     11      -3.6134      1.00000
     12      -3.4895      1.00000
     13      -3.0307      1.00000
     14      -2.8861      1.00000
     15      -2.6124      1.00000
     16      -2.5147      1.00000
     17      -2.3640      1.00000
     18      -2.3232      1.00000
     19      -2.0245      1.00000
     20      -1.9252      1.00000
     21      -1.5312      1.00000
     22      -1.3257      1.00000
     23      -1.2044      1.00000
     24      -1.1583      1.00000
     25      -0.8220      1.00000
     26      -0.6632      1.00000
     27      -0.5610      1.00000
     28      -0.4485      1.00000
     29      -0.1879      1.00000
     30      -0.1377      1.00000
     31       0.2170      1.00000
     32       0.3536      1.00000
     33       0.5800      1.00000
     34       0.6578      1.00000
     35       1.2018      1.00000
     36       1.4014      1.00000
     37       1.5848      1.00000
     38       1.6639      1.00000
     39       4.0054      0.00000
     40       4.0710      0.00000
     41       4.1834      0.00000
     42       4.3858      0.00000
     43       5.4592      0.00000
     44       5.4849      0.00000
     45       5.5936      0.00000
     46       5.6129      0.00000
     47       5.8441      0.00000
     48       5.9951      0.00000

 k-point  21 :       0.0000    0.0000    0.3333
  band No.  band energies     occupation 
      1     -16.4572      1.00000
      2     -16.1208      1.00000
      3     -15.5534      1.00000
      4     -15.1332      1.00000
      5     -14.6655      1.00000
      6     -14.6483      1.00000
      7     -14.6237      1.00000
      8     -14.5782      1.00000
      9      -4.6044      1.00000
     10      -4.3611      1.00000
     11      -3.6615      1.00000
     12      -3.2572      1.00000
     13      -3.1279      1.00000
     14      -2.8838      1.00000
     15      -2.8660      1.00000
[...]
     39       3.9769      0.00000
     40       4.1315      0.00000
     41       4.2967      0.00000
     42       4.6844      0.00000
     43       5.3753      0.00000
     44       5.3794      0.00000
     45       5.5908      0.00000
     46       5.6341      0.00000
     47       5.7355      0.00000
     48       5.8173      0.00000

 k-point  40 :       0.3333    0.4444    0.5000
  band No.  band energies     occupation 
      1     -15.1908      1.00000
      2     -15.1807      1.00000
      3     -14.9587      1.00000
      4     -14.9528      1.00000
      5     -14.8040      1.00000
      6     -14.7916      1.00000
      7     -14.7413      1.00000
      8     -14.7094      1.00000
      9      -4.3523      1.00000
     10      -4.2506      1.00000
     11      -3.7492      1.00000
     12      -3.5795      1.00000
     13      -2.9678      1.00000
     14      -2.7802      1.00000
     15      -2.7672      1.00000
     16      -2.6388      1.00000
     17      -2.5212      1.00000
     18      -2.3344      1.00000
     19      -2.0302      1.00000
     20      -1.9605      1.00000
     21      -1.7183      1.00000
     22      -1.5506      1.00000
     23      -1.1644      1.00000
     24      -1.1044      1.00000
     25      -0.7791      1.00000
     26      -0.5957      1.00000
     27      -0.5442      1.00000
     28      -0.4314      1.00000
     29      -0.3455      1.00000
     30       0.0004      1.00000
     31       0.5468      1.00000
     32       0.7252      1.00000
     33       0.7737      1.00000
     34       0.9745      1.00000
     35       1.4120      1.00000
     36       1.4579      1.00000
     37       1.6024      1.00000
     38       1.7053      1.00000
     39       4.0143      0.00000
     40       4.1327      0.00000
     41       4.2953      0.00000
     42       4.5260      0.00000
     43       5.4180      0.00000
     44       5.4215      0.00000
     45       5.5831      0.00000
     46       5.6077      0.00000
     47       5.7811      0.00000
     48       5.8142      0.00000


--------------------------------------------------------------------------------------------------------


 soft charge-density along one line, spin component           1
         0         1         2         3         4         5         6         7         8         9
 total charge-density along one line
 
 soft charge-density along one line, spin component           2
         0         1         2         3         4         5         6         7         8         9
 total charge-density along one line
 
 pseudopotential strength for first ion, spin component:           1
 -9.769  -0.877  -0.000   0.000   0.000 -10.297  -0.898  -0.000
 -0.877  -9.752   0.000   0.000  -0.000  -0.898 -10.280   0.000
 -0.000   0.000 -10.512   0.288   0.158  -0.000   0.000 -11.060
  0.000   0.000   0.288  -9.416   0.731   0.000   0.000   0.295
  0.000  -0.000   0.158   0.731 -10.200   0.000  -0.000   0.163
-10.297  -0.898  -0.000   0.000   0.000 -10.806  -0.924  -0.000
 -0.898 -10.280   0.000   0.000  -0.000  -0.924 -10.790   0.000
 -0.000   0.000 -11.060   0.295   0.163  -0.000   0.000 -11.595
  0.000   0.000   0.295  -9.937   0.748   0.000   0.000   0.304
  0.000  -0.000   0.163   0.748 -10.737   0.000  -0.000   0.169
 -0.000  -0.000  -0.005  -0.001  -0.005  -0.000  -0.000  -0.006
 -0.000  -0.000  -0.010  -0.002  -0.010  -0.000  -0.000  -0.010
 -0.008  -0.001  -0.000   0.000  -0.000  -0.008  -0.001  -0.000
  0.000   0.000   0.000  -0.004  -0.000   0.000   0.000  -0.000
  0.000   0.000   0.008  -0.002  -0.009   0.000   0.000   0.008
 -0.009  -0.002  -0.000   0.000  -0.000  -0.009  -0.002  -0.000
  0.000   0.000   0.000  -0.004   0.000   0.000   0.000   0.000
  0.000   0.000   0.009  -0.002  -0.010   0.000   0.000   0.009
 pseudopotential strength for first ion, spin component:           2
 -6.158   0.644  -0.000   0.000   0.000  -6.664   0.652  -0.000
  0.644  -6.112   0.000   0.000  -0.000   0.652  -6.618   0.000
 -0.000   0.000  -5.551  -0.213  -0.098  -0.000   0.000  -6.050
  0.000   0.000  -0.213  -6.250  -0.556   0.000   0.000  -0.216
  0.000  -0.000  -0.098  -0.556  -5.831   0.000  -0.000  -0.098
 -6.664   0.652  -0.000   0.000   0.000  -7.138   0.664  -0.000
  0.652  -6.618   0.000   0.000  -0.000   0.664  -7.092   0.000
 -0.000   0.000  -6.050  -0.216  -0.098  -0.000   0.000  -6.516
  0.000   0.000  -0.216  -6.758  -0.564   0.000   0.000  -0.220
  0.000  -0.000  -0.098  -0.564  -6.333   0.000  -0.000  -0.099
 -0.000  -0.000  -0.014  -0.000  -0.007  -0.000  -0.000  -0.014
 -0.000  -0.000  -0.027  -0.001  -0.014  -0.000  -0.000  -0.028
 -0.003   0.003  -0.000   0.000  -0.000  -0.003   0.003  -0.000
  0.000   0.000  -0.001  -0.005  -0.001   0.000   0.000  -0.001
  0.000   0.000  -0.000   0.001  -0.002   0.000   0.000  -0.000
 -0.002   0.003  -0.000   0.000  -0.000  -0.003   0.003  -0.000
  0.000   0.000  -0.002  -0.006  -0.001   0.000   0.000  -0.001
  0.000   0.000  -0.001   0.001  -0.002   0.000   0.000  -0.001
 total augmentation occupancy for first ion, spin component:           1
  1.200   0.000   0.000   0.000   0.000   0.000   0.000   0.000   0.000   0.000   0.000   0.000   0.000   0.000   0.000   0.000
  0.000   1.200   0.000   0.000   0.000   0.000   0.000   0.000   0.000   0.000   0.000   0.000   0.000   0.000   0.000   0.000
  0.000   0.000   1.200   0.000   0.000   0.000   0.000   0.000   0.000   0.000   0.000   0.000   0.000   0.000   0.000   0.000
  0.000   0.000   0.000   1.200   0.000   0.000   0.000   0.000   0.000   0.000   0.000   0.000   0.000   0.000   0.000   0.000
  0.000   0.000   0.000   0.000   1.200   0.000   0.000   0.000   0.000   0.000   0.000   0.000   0.000   0.000   0.000   0.000
  0.000   0.000   0.000   0.000   0.000   0.000   0.000   0.000   0.000   0.000   0.000   0.000   0.000   0.000   0.000   0.000
  0.000   0.000   0.000   0.000   0.000   0.000   0.000   0.000   0.000   0.000   0.000   0.000   0.000   0.000   0.000   0.000
  0.000   0.000   0.000   0.000   0.000   0.000   0.000   0.000   0.000   0.000   0.000   0.000   0.000   0.000   0.000   0.000
  0.000   0.000   0.000   0.000   0.000   0.000   0.000   0.000   0.000   0.000   0.000   0.000   0.000   0.000   0.000   0.000
  0.000   0.000   0.000   0.000   0.000   0.000   0.000   0.000   0.000   0.000   0.000   0.000   0.000   0.000   0.000   0.000
  0.000   0.000   0.000   0.000   0.000   0.000   0.000   0.000   0.000   0.000   1.000   0.000   0.000   0.000   0.000   0.000
  0.000   0.000   0.000   0.000   0.000   0.000   0.000   0.000   0.000   0.000   0.000   0.000   0.000   0.000   0.000   0.000
  0.000   0.000   0.000   0.000   0.000   0.000   0.000   0.000   0.000   0.000   0.000   0.000   0.000   0.000   0.000   0.000
  0.000   0.000   0.000   0.000   0.000   0.000   0.000   0.000   0.000   0.000   0.000   0.000   0.000   0.000   0.000   0.000
  0.000   0.000   0.000   0.000   0.000   0.000   0.000   0.000   0.000   0.000   0.000   0.000   0.000   0.000   0.000   0.000
  0.000   0.000   0.000   0.000   0.000   0.000   0.000   0.000   0.000   0.000   0.000   0.000   0.000   0.000   0.000   0.000
  0.000   0.000   0.000   0.000   0.000   0.000   0.000   0.000   0.000   0.000   0.000   0.000   0.000   0.000   0.000   0.000
  0.000   0.000   0.000   0.000   0.000   0.000   0.000   0.000   0.000   0.000   0.000   0.000   0.000   0.000   0.000   0.000
 total augmentation occupancy for first ion, spin component:           2
  0.686   0.000   0.000   0.000   0.000   0.000   0.000   0.000   0.000   0.000   0.000   0.000   0.000   0.000   0.000   0.000
  0.000   0.686   0.000   0.000   0.000   0.000   0.000   0.000   0.000   0.000   0.000   0.000   0.000   0.000   0.000   0.000
  0.000   0.000   0.686   0.000   0.000   0.000   0.000   0.000   0.000   0.000   0.000   0.000   0.000   0.000   0.000   0.000
  0.000   0.000   0.000   0.686   0.000   0.000   0.000   0.000   0.000   0.000   0.000   0.000   0.000   0.000   0.000   0.000
  0.000   0.000   0.000   0.000   0.686   0.000   0.000   0.000   0.000   0.000   0.000   0.000   0.000   0.000   0.000   0.000
  0.000   0.000   0.000   0.000   0.000   0.000   0.000   0.000   0.000   0.000   0.000   0.000   0.000   0.000   0.000   0.000
  0.000   0.000   0.000   0.000   0.000   0.000   0.000   0.000   0.000   0.000   0.000   0.000   0.000   0.000   0.000   0.000
  0.000   0.000   0.000   0.000   0.000   0.000   0.000   0.000   0.000   0.000   0.000   0.000   0.000   0.000   0.000   0.000
  0.000   0.000   0.000   0.000   0.000   0.000   0.000   0.000   0.000   0.000   0.000   0.000   0.000   0.000   0.000   0.000
  0.000   0.000   0.000   0.000   0.000   0.000   0.000   0.000   0.000   0.000   0.000   0.000   0.000   0.000   0.000   0.000
  0.000   0.000   0.000   0.000   0.000   0.000   0.000   0.000   0.000   0.000   0.571   0.000   0.000   0.000   0.000   0.000
  0.000   0.000   0.000   0.000   0.000   0.000   0.000   0.000   0.000   0.000   0.000   0.000   0.000   0.000   0.000   0.000
  0.000   0.000   0.000   0.000   0.000   0.000   0.000   0.000   0.000   0.000   0.000   0.000   0.000   0.000   0.000   0.000
  0.000   0.000   0.000   0.000   0.000   0.000   0.000   0.000   0.000   0.000   0.000   0.000   0.000   0.000   0.000   0.000
  0.000   0.000   0.000   0.000   0.000   0.000   0.000   0.000   0.000   0.000   0.000   0.000   0.000   0.000   0.000   0.000
  0.000   0.000   0.000   0.000   0.000   0.000   0.000   0.000   0.000   0.000   0.000   0.000   0.000   0.000   0.000   0.000
  0.000   0.000   0.000   0.000   0.000   0.000   0.000   0.000   0.000   0.000   0.000   0.000   0.000   0.000   0.000   0.000
  0.000   0.000   0.000   0.000   0.000   0.000   0.000   0.000   0.000   0.000   0.000   0.000   0.000   0.000   0.000   0.000


------------------------ aborting loop because EDIFF is reached ----------------------------------------


 


 total charge     
 
# of ion     s       p       d       tot
----------------------------------------
  1        0.365   0.581   4.832   5.778
  2        0.365   0.581   4.831   5.777
  3        0.365   0.581   4.832   5.778
  4        0.365   0.581   4.831   5.777
  5        1.561   3.456   0.000   5.018
  6        1.561   3.458   0.000   5.019
  7        1.561   3.456   0.000   5.018
  8        1.561   3.458   0.000   5.019
  9        1.581   3.388   0.000   4.969
 10        1.581   3.388   0.000   4.970
 11        1.581   3.388   0.000   4.969
 12        1.581   3.388   0.000   4.970
------------------------------------------------
tot       14.030  29.703  19.327  63.060
 


 magnetization (x)
 
# of ion     s       p       d       tot
----------------------------------------
  1        0.016   0.027   2.990   3.033
  2        0.016   0.027   2.988   3.031
  3       -0.016  -0.027  -2.990  -3.033
  4       -0.016  -0.027  -2.988  -3.031
  5       -0.000   0.000   0.000  -0.000
  6       -0.000  -0.001   0.000  -0.001
  7        0.000  -0.000   0.000   0.000
  8        0.000   0.001   0.000   0.001
  9       -0.001   0.033   0.000   0.032
 10       -0.001   0.032   0.000   0.032
 11        0.001  -0.033   0.000  -0.032
 12        0.001  -0.032   0.000  -0.032
------------------------------------------------
tot        0.000  -0.000   0.000   0.000
 
    CHARGE:  cpu time    0.06: real time    0.06
    FORLOC:  cpu time    0.00: real time    0.00
    FORNL :  cpu time    0.37: real time    0.37
    STRESS:  cpu time    0.48: real time    0.48
    FORCOR:  cpu time    0.01: real time    0.01
    FORHAR:  cpu time    0.00: real time    0.00

  FORCE on cell =-STRESS in cart. coord.  units (eV):
  Direction    XX          YY          ZZ          XY          YZ          ZX
  --------------------------------------------------------------------------------------
  Alpha Z   313.42212   313.42212   313.42212
  Ewald   -1268.53850  -858.28473 -1994.24810    -0.00000     0.00000    -0.00000
  Hartree   521.25901   726.24095    97.88456    -0.00000    -0.00000    -0.00000
  E(xc)    -369.91789  -370.31477  -369.51660     0.00000     0.00000    -0.00000
  Local    -425.42885 -1016.57846   701.63979    -0.00000     0.00000     0.00000
  n-local  -259.05905  -252.80078  -262.86822     0.00725    -0.04986     0.00530
  augment   175.14132   171.52824   177.66018    -0.00000     0.00000     0.00000
  Kinetic  1313.25549  1286.80420  1335.84296    -0.03392    -0.60655     0.04381
  Fock        0.00000     0.00000     0.00000     0.00000     0.00000     0.00000
  -------------------------------------------------------------------------------------
  Total       0.13365     0.01678    -0.18331     0.00000    -0.00000     0.00000
  in kB       1.76349     0.22139    -2.41883     0.00000    -0.00000     0.00000
  external pressure =       -0.14 kB  Pullay stress =        0.00 kB


 VOLUME and BASIS-vectors are now :
 -----------------------------------------------------------------------------
  energy-cutoff  :      520.00
  volume of cell :      121.42
      direct lattice vectors                 reciprocal lattice vectors
     9.227624058  0.000000000  0.000000000     0.108370258  0.000000000  0.000000000
     0.000000000  2.880523881  0.000000000     0.000000000  0.347159073  0.000000000
     0.000000000  0.000000000  4.568121979     0.000000000  0.000000000  0.218908340

  length of vectors
     9.227624058  2.880523881  4.568121979     0.108370258  0.347159073  0.218908340


 FORCES acting on ions
    electron-ion (+dipol)            ewald-force                    non-local-force                 convergence-correction
 -----------------------------------------------------------------------------------------------
   -.462E+02 0.219E-12 -.958E+01   0.470E+02 -.216E-14 0.957E+01   -.786E+00 0.821E-17 -.325E-01   -.712E-01 -.387E-11 0.664E-02
   -.462E+02 0.983E-12 0.958E+01   0.470E+02 -.140E-13 -.957E+01   -.786E+00 -.142E-17 0.325E-01   -.712E-01 0.416E-11 -.664E-02
   0.462E+02 -.106E-11 0.958E+01   -.470E+02 -.163E-13 -.957E+01   0.786E+00 -.704E-17 0.325E-01   0.712E-01 -.392E-11 -.664E-02
   0.462E+02 -.663E-13 -.958E+01   -.470E+02 -.443E-14 0.957E+01   0.786E+00 0.124E-17 -.325E-01   0.712E-01 0.346E-11 0.664E-02
   0.286E+02 -.518E-12 0.403E+02   -.298E+02 -.155E-13 -.447E+02   0.122E+01 -.368E-18 0.441E+01   0.271E-01 -.997E-11 0.642E-02
   0.286E+02 -.677E-11 -.403E+02   -.298E+02 0.146E-13 0.447E+02   0.122E+01 -.860E-18 -.441E+01   0.271E-01 -.523E-11 -.642E-02
   -.286E+02 0.131E-11 -.403E+02   0.298E+02 0.167E-13 0.447E+02   -.122E+01 -.140E-18 -.441E+01   -.271E-01 -.626E-11 -.642E-02
   -.286E+02 -.523E-12 0.403E+02   0.298E+02 -.136E-13 -.447E+02   -.122E+01 0.249E-17 0.441E+01   -.271E-01 -.863E-11 0.642E-02
   -.248E+02 0.159E-11 -.205E+03   0.282E+02 0.186E-13 0.230E+03   -.334E+01 0.452E-19 -.257E+02   0.177E-01 -.166E-10 -.704E-02
   -.248E+02 0.272E-11 0.205E+03   0.282E+02 -.363E-14 -.230E+03   -.334E+01 -.830E-18 0.257E+02   0.177E-01 -.124E-10 0.704E-02
   0.248E+02 0.129E-11 0.205E+03   -.282E+02 -.743E-14 -.230E+03   0.334E+01 -.147E-17 0.257E+02   -.177E-01 -.159E-10 0.704E-02
   0.248E+02 0.113E-12 -.205E+03   -.282E+02 0.148E-13 0.230E+03   0.334E+01 -.622E-18 -.257E+02   -.177E-01 -.156E-10 -.704E-02
 -----------------------------------------------------------------------------------------------
   0.394E-11 -.708E-12 0.518E-11   -.533E-13 -.123E-13 -.284E-13   0.444E-15 -.756E-18 -.355E-14   -.269E-10 -.907E-10 -.396E-10
 
 
 POSITION                                       TOTAL-FORCE (eV/Angst)
 -----------------------------------------------------------------------------------
      1.24823      0.72013      0.14928        -0.021415     -0.000000     -0.029471
      5.86205      0.72013      2.13478        -0.021415      0.000000      0.029471
      7.97939      2.16039      4.41884         0.021415     -0.000000      0.029471
      3.36558      2.16039      2.43334         0.021415      0.000000     -0.029471
      2.56743      0.72013      1.50099         0.016315     -0.000000      0.003423
      7.18124      0.72013      0.78307         0.016315     -0.000000     -0.003423
      6.66019      2.16039      3.06713        -0.016315      0.000000     -0.003423
      2.04638      2.16039      3.78505        -0.016315      0.000000      0.003423
      4.30802      0.72013      3.26062         0.008973      0.000000      0.026599
      8.92183      0.72013      3.59156         0.008973     -0.000000     -0.026599
      4.91960      2.16039      1.30750        -0.008973     -0.000000     -0.026599
      0.30579      2.16039      0.97656        -0.008973     -0.000000      0.026599
 -----------------------------------------------------------------------------------
    total drift:                               -0.000000     -0.000000     -0.000000


--------------------------------------------------------------------------------------------------------



  FREE ENERGIE OF THE ION-ELECTRON SYSTEM (eV)
  ---------------------------------------------------
  free  energy   TOTEN  =       -89.49536189 eV

  energy  without entropy=      -89.49536189  energy(sigma->0) =      -89.49536189
 


--------------------------------------------------------------------------------------------------------


    POTLOK:  cpu time    0.02: real time    0.02


--------------------------------------------------------------------------------------------------------


     LOOP+:  cpu time   17.65: real time   19.18
    4ORBIT:  cpu time    0.00: real time    0.00
 


 total charge     
 
# of ion     s       p       d       tot
----------------------------------------
  1        0.365   0.581   4.832   5.778
  2        0.365   0.581   4.831   5.777
  3        0.365   0.581   4.832   5.778
  4        0.365   0.581   4.831   5.777
  5        1.561   3.456   0.000   5.018
  6        1.561   3.458   0.000   5.019
  7        1.561   3.456   0.000   5.018
  8        1.561   3.458   0.000   5.019
  9        1.581   3.388   0.000   4.969
 10        1.581   3.388   0.000   4.970
 11        1.581   3.388   0.000   4.969
 12        1.581   3.388   0.000   4.970
------------------------------------------------
tot       14.030  29.703  19.327  63.060
 


 magnetization (x)
 
# of ion     s       p       d       tot
----------------------------------------
  1        0.016   0.027   2.990   3.033
  2        0.016   0.027   2.988   3.031
  3       -0.016  -0.027  -2.990  -3.033
  4       -0.016  -0.027  -2.988  -3.031
  5       -0.000   0.000   0.000  -0.000
  6       -0.000  -0.001   0.000  -0.001
  7        0.000  -0.000   0.000   0.000
  8        0.000   0.001   0.000   0.001
  9       -0.001   0.033   0.000   0.032
 10       -0.001   0.032   0.000   0.032
 11        0.001  -0.033   0.000  -0.032
 12        0.001  -0.032   0.000  -0.032
------------------------------------------------
tot        0.000  -0.000   0.000   0.000
 
 BZINTS: Fermi energy:  2.282936; 76.000000 electrons
         Band energy:-305.647549;  BLOECHL correction:  0.000000

 total amount of memory used by VASP on root node    48069. kBytes
========================================================================

   base      :      30000. kBytes
   nonl-proj :       9744. kBytes
   fftplans  :        438. kBytes
   grid      :       1098. kBytes
   one-center:         93. kBytes
   wavefun   :       6696. kBytes
 
  
  
 General timing and accounting informations for this job:
 ========================================================
  
                  Total CPU time used (sec):       20.068
                            User time (sec):       19.764
                          System time (sec):        0.304
                         Elapsed time (sec):       22.710
  
                   Maximum memory used (kb):       97880.
                   Average memory used (kb):           0.
  
                          Minor page faults:        15076
                          Major page faults:            0
                 Voluntary context switches:         2299
