 vasp.5.3.3 18Dez12 (build May 12 2016 12:04:25) complex                        
  
 executed on             LinuxIFC date 2019.05.18  12:02:27
 running on   32 total cores
 distrk:  each k-point on   32 cores,    1 groups
 distr:  one band on NCORES_PER_BAND=   4 cores,    8 groups


--------------------------------------------------------------------------------------------------------


 INCAR:
 POTCAR:    PAW_PBE Mn 06Sep2000                  
 POTCAR:    PAW_PBE O 08Apr2002                   
 POTCAR:    PAW_PBE Mn 06Sep2000                  
  local pseudopotential read in
  partial core-charges read in
  partial kinetic energy density read in
  atomic valenz-charges read in
  non local Contribution for L=           2  read in
    real space projection operators read in
  non local Contribution for L=           2  read in
    real space projection operators read in
  non local Contribution for L=           0  read in
    real space projection operators read in
  non local Contribution for L=           0  read in
    real space projection operators read in
  non local Contribution for L=           1  read in
    real space projection operators read in
  non local Contribution for L=           1  read in
    real space projection operators read in
    PAW grid and wavefunctions read in
 
   number of l-projection  operators is LMAX  =           6
   number of lm-projection operators is LMMAX =          18
 
 POTCAR:    PAW_PBE O 08Apr2002                   
  local pseudopotential read in
  partial core-charges read in
  partial kinetic energy density read in
  kinetic energy density of atom read in
  atomic valenz-charges read in
  non local Contribution for L=           0  read in
    real space projection operators read in
  non local Contribution for L=           0  read in
    real space projection operators read in
  non local Contribution for L=           1  read in
    real space projection operators read in
  non local Contribution for L=           1  read in
    real space projection operators read in
    PAW grid and wavefunctions read in
 
   number of l-projection  operators is LMAX  =           4
   number of lm-projection operators is LMMAX =           8
 

 ----------------------------------------------------------------------------- 
|                                                                             |
|  ADVICE TO THIS USER RUNNING 'VASP/VAMP'   (HEAR YOUR MASTER'S VOICE ...):  |
|                                                                             |
|      You enforced a specific xc-type in the INCAR file,                     |
|      a different type was found on the POTCAR file                          |
|          I HOPE YOU KNOW, WHAT YOU ARE  DOING                               |
|                                                                             |
 ----------------------------------------------------------------------------- 

  PAW_PBE Mn 06Sep2000                  :
 energy of atom  1       EATOM= -416.7541
 kinetic energy error for atom=    0.0024 (will be added to EATOM!!)
  PAW_PBE O 08Apr2002                   :
 energy of atom  2       EATOM= -432.3788
 kinetic energy error for atom=    0.0208 (will be added to EATOM!!)
 
 
 POSCAR: (Mn O2)4  (P1) ~ POSCAR_1 (VASP)        
  positions in direct lattice
  velocities in cartesian coordinates
  No initial velocities read in
 exchange correlation table for  LEXCH =       14
   RHO(1)=    0.500       N(1)  =     2000
   RHO(2)=  100.500       N(2)  =     4000
 


--------------------------------------------------------------------------------------------------------


 ion  position               nearest neighbor table
   1  0.000  0.000  0.000-  10 1.92   9 1.92   8 1.94   7 1.94   6 2.00   5 2.00   4 2.85   4 2.85
                             3 2.95   3 2.95   2 2.95   2 2.95
   2  0.000  0.500  0.000-  12 1.92  11 1.92   6 1.94   5 1.94   8 2.00   7 2.00   3 2.85   3 2.85
                             4 2.95   4 2.95   1 2.95   1 2.95
   3  0.500  0.000  0.000-   6 1.92   5 1.92  12 1.94  11 1.94  10 2.00   9 2.00   2 2.85   2 2.85
                             1 2.95   1 2.95   4 2.95   4 2.95
   4  0.500  0.500  0.000-   8 1.92   7 1.92  10 1.94   9 1.94  12 2.00  11 2.00   1 2.85   1 2.85
                             2 2.95   2 2.95   3 2.95   3 2.95
   5  0.194  0.813  0.140-   3 1.92   2 1.94   1 2.00
   6  0.806  0.187  0.860-   3 1.92   2 1.94   1 2.00
   7  0.194  0.313  0.140-   4 1.92   1 1.94   2 2.00
   8  0.806  0.687  0.860-   4 1.92   1 1.94   2 2.00
   9  0.694  0.813  0.140-   1 1.92   4 1.94   3 2.00
  10  0.306  0.187  0.860-   1 1.92   4 1.94   3 2.00
  11  0.694  0.313  0.140-   2 1.92   3 1.94   4 2.00
  12  0.306  0.687  0.860-   2 1.92   3 1.94   4 2.00
 
  LATTYP: Found a triclinic cell.
 ALAT       =    15.3805926721
 B/A-ratio  =     0.9828776718
 C/A-ratio  =     1.3104245900
 COS(alpha) =     0.0034550046
 COS(beta)  =     0.5787308293
 COS(gamma) =     0.8162759626
  
  Lattice vectors:
  
 A1 = ( -14.5474819000,  -4.9933356900,   0.0000000000)
 A2 = ( -13.3037208000,   0.7493140300,   7.1400644500)
 A3 = (  -8.3901220100, -11.4852994400, -14.2801289000)


Analysis of symmetry for initial positions (statically):
=====================================================================
 Subroutine PRICEL returns following result:
 
  LATTYP: Found a triclinic cell.
 ALAT       =     2.9512999050
 B/A-ratio  =     1.0011520647
 C/A-ratio  =     2.6737552581
 COS(alpha) =     0.0073752884
 COS(beta)  =     0.3636602222
 COS(gamma) =     0.5347949939
  
  Lattice vectors:
  
 A1 = (   2.9512999050,   0.0000000000,   0.0000000000)
 A2 = (   1.5801587650,  -2.4966678450,   0.0000000000)
 A3 = (   2.8696623200,   1.7473538150,  -7.1400644500)
 
   4 primitive cells build up your supercell.
 

 Routine SETGRP: Setting up the symmetry group for a 
 triclinic supercell.


 Subroutine GETGRP returns: Found  2 space group operations
 (whereof  2 operations were pure point group operations)
 out of a pool of  2 trial point group operations.


The static configuration has the point symmetry S_2 .


Analysis of symmetry for dynamics (positions and initial velocities):
=====================================================================
 Subroutine PRICEL returns following result:
 
  LATTYP: Found a triclinic cell.
 ALAT       =     2.9512999050
 B/A-ratio  =     1.0011520647
 C/A-ratio  =     2.6737552581
 COS(alpha) =     0.0073752884
 COS(beta)  =     0.3636602222
 COS(gamma) =     0.5347949939
  
  Lattice vectors:
  
 A1 = (   2.9512999050,   0.0000000000,   0.0000000000)
 A2 = (   1.5801587650,  -2.4966678450,   0.0000000000)
 A3 = (   2.8696623200,   1.7473538150,  -7.1400644500)
 
   4 primitive cells build up your supercell.
 

 Routine SETGRP: Setting up the symmetry group for a 
 triclinic supercell.


 Subroutine GETGRP returns: Found  2 space group operations
 (whereof  2 operations were pure point group operations)
 out of a pool of  2 trial point group operations.


The dynamic configuration has the point symmetry S_2 .


Analysis of magnetic symmetry:
=====================================================================

 Subroutine MAGSYM returns: Found  2 space group operations
 (whereof  2 operations were pure point group operations)
 out of a pool of  2 trial space group operations
 (whereof  2 operations were pure point group operations)
 and found also     4 'primitive' translations


The magnetic configuration has the point symmetry S_2 .


 irot  :   1
 --------------------------------------------------------------------
 isymop:   1   0   0
           0   1   0
           0   0   1

 gtrans:     0.0000000     0.0000000     0.0000000

 ptrans:     0.0000000     0.0000000     0.0000000
 rotmap:
 (   1->   1)  (   2->   2)  (   3->   3)  (   4->   4)  (   5->   5) 
 (   6->   6)  (   7->   7)  (   8->   8)  (   9->   9)  (  10->  10) 
 (  11->  11)  (  12->  12) 

 ptrans:     0.5000000     0.0000000     0.0000000
 rotmap:
 (   1->   3)  (   2->   4)  (   3->   1)  (   4->   2)  (   5->   9) 
 (   6->  10)  (   7->  11)  (   8->  12)  (   9->   5)  (  10->   6) 
 (  11->   7)  (  12->   8) 

 ptrans:     0.0000000     0.5000000     0.0000000
 rotmap:
 (   1->   2)  (   2->   1)  (   3->   4)  (   4->   3)  (   5->   7) 
 (   6->   8)  (   7->   5)  (   8->   6)  (   9->  11)  (  10->  12) 
 (  11->   9)  (  12->  10) 

 ptrans:     0.5000000     0.5000000     0.0000000
 rotmap:
 (   1->   4)  (   2->   3)  (   3->   2)  (   4->   1)  (   5->  11) 
 (   6->  12)  (   7->   9)  (   8->  10)  (   9->   7)  (  10->   8) 
 (  11->   5)  (  12->   6) 


 irot  :   2
 --------------------------------------------------------------------
 isymop:  -1   0   0
           0  -1   0
           0   0  -1

 gtrans:     0.0000000     0.0000000     0.0000000

 ptrans:     0.0000000     0.0000000     0.0000000
 rotmap:
 (   1->   1)  (   2->   2)  (   3->   3)  (   4->   4)  (   5->   6) 
 (   6->   5)  (   7->   8)  (   8->   7)  (   9->  10)  (  10->   9) 
 (  11->  12)  (  12->  11) 

 ptrans:     0.5000000     0.0000000     0.0000000
 rotmap:
 (   1->   3)  (   2->   4)  (   3->   1)  (   4->   2)  (   5->  10) 
 (   6->   9)  (   7->  12)  (   8->  11)  (   9->   6)  (  10->   5) 
 (  11->   8)  (  12->   7) 

 ptrans:     0.0000000     0.5000000     0.0000000
 rotmap:
 (   1->   2)  (   2->   1)  (   3->   4)  (   4->   3)  (   5->   8) 
 (   6->   7)  (   7->   6)  (   8->   5)  (   9->  12)  (  10->  11) 
 (  11->  10)  (  12->   9) 

 ptrans:     0.5000000     0.5000000     0.0000000
 rotmap:
 (   1->   4)  (   2->   3)  (   3->   2)  (   4->   1)  (   5->  12) 
 (   6->  11)  (   7->  10)  (   8->   9)  (   9->   8)  (  10->   7) 
 (  11->   6)  (  12->   5) 
 
 
 KPOINTS: Automatic mesh                          

Automatic generation of k-mesh.
Space group operators:
 irot       det(A)        alpha          n_x          n_y          n_z        tau_x        tau_y        tau_z
    1     1.000000     0.000000     1.000000     0.000000     0.000000     0.000000     0.000000     0.000000
    2    -1.000000     0.000000     1.000000     0.000000     0.000000     0.000000     0.000000     0.000000
 
 Subroutine IBZKPT returns following result:
 ===========================================
 
 Found     76 irreducible k-points:
 
 Following reciprocal coordinates:
            Coordinates               Weight
  0.000000  0.000000  0.000000      1.000000
  0.166667  0.000000 -0.000000      2.000000
  0.333333  0.000000  0.000000      2.000000
  0.500000  0.000000 -0.000000      1.000000
  0.000000  0.166667  0.000000      2.000000
  0.166667  0.166667 -0.000000      2.000000
  0.333333  0.166667 -0.000000      2.000000
  0.500000  0.166667 -0.000000      2.000000
 -0.333333  0.166667  0.000000      2.000000
 -0.166667  0.166667  0.000000      2.000000
  0.000000  0.333333 -0.000000      2.000000
  0.166667  0.333333 -0.000000      2.000000
  0.333333  0.333333 -0.000000      2.000000
  0.500000  0.333333 -0.000000      2.000000
 -0.333333  0.333333 -0.000000      2.000000
 -0.166667  0.333333 -0.000000      2.000000
  0.000000  0.500000 -0.000000      1.000000
  0.166667  0.500000 -0.000000      2.000000
  0.333333  0.500000 -0.000000      2.000000
  0.500000  0.500000 -0.000000      1.000000
  0.000000  0.000000  0.250000      2.000000
  0.166667  0.000000  0.250000      2.000000
  0.333333  0.000000  0.250000      2.000000
  0.500000  0.000000  0.250000      2.000000
 -0.333333 -0.000000  0.250000      2.000000
 -0.166667 -0.000000  0.250000      2.000000
  0.000000  0.166667  0.250000      2.000000
  0.166667  0.166667  0.250000      2.000000
  0.333333  0.166667  0.250000      2.000000
  0.500000  0.166667  0.250000      2.000000
 -0.333333  0.166667  0.250000      2.000000
 -0.166667  0.166667  0.250000      2.000000
  0.000000  0.333333  0.250000      2.000000
  0.166667  0.333333  0.250000      2.000000
  0.333333  0.333333  0.250000      2.000000
  0.500000  0.333333  0.250000      2.000000
 -0.333333  0.333333  0.250000      2.000000
 -0.166667  0.333333  0.250000      2.000000
  0.000000  0.500000  0.250000      2.000000
  0.166667  0.500000  0.250000      2.000000
  0.333333  0.500000  0.250000      2.000000
  0.500000  0.500000  0.250000      2.000000
 -0.333333  0.500000  0.250000      2.000000
 -0.166667  0.500000  0.250000      2.000000
  0.000000 -0.333333  0.250000      2.000000
  0.166667 -0.333333  0.250000      2.000000
  0.333333 -0.333333  0.250000      2.000000
  0.500000 -0.333333  0.250000      2.000000
 -0.333333 -0.333333  0.250000      2.000000
 -0.166667 -0.333333  0.250000      2.000000
  0.000000 -0.166667  0.250000      2.000000
  0.166667 -0.166667  0.250000      2.000000
  0.333333 -0.166667  0.250000      2.000000
  0.500000 -0.166667  0.250000      2.000000
 -0.333333 -0.166667  0.250000      2.000000
 -0.166667 -0.166667  0.250000      2.000000
  0.000000  0.000000  0.500000      1.000000
  0.166667  0.000000  0.500000      2.000000
  0.333333  0.000000  0.500000      2.000000
  0.500000  0.000000  0.500000      1.000000
  0.000000  0.166667  0.500000      2.000000
  0.166667  0.166667  0.500000      2.000000
  0.333333  0.166667  0.500000      2.000000
  0.500000  0.166667  0.500000      2.000000
 -0.333333  0.166667  0.500000      2.000000
 -0.166667  0.166667  0.500000      2.000000
  0.000000  0.333333  0.500000      2.000000
  0.166667  0.333333  0.500000      2.000000
  0.333333  0.333333  0.500000      2.000000
  0.500000  0.333333  0.500000      2.000000
 -0.333333  0.333333  0.500000      2.000000
 -0.166667  0.333333  0.500000      2.000000
  0.000000  0.500000  0.500000      1.000000
  0.166667  0.500000  0.500000      2.000000
  0.333333  0.500000  0.500000      2.000000
  0.500000  0.500000  0.500000      1.000000
 
 Following cartesian coordinates:
            Coordinates               Weight
  0.000000  0.000000  0.000000      1.000000
  0.028236  0.017871  0.004051      2.000000
  0.056472  0.035742  0.008101      2.000000
  0.084708  0.053613  0.012152      1.000000
  0.000000  0.033378 -0.003503      2.000000
  0.028236  0.051249  0.000548      2.000000
  0.056472  0.069120  0.004598      2.000000
  0.084708  0.086990  0.008649      2.000000
 -0.056472 -0.002364 -0.011604      2.000000
 -0.028236  0.015507 -0.007553      2.000000
  0.000000  0.066756 -0.007006      2.000000
  0.028236  0.084626 -0.002955      2.000000
  0.056472  0.102497  0.001096      2.000000
  0.084708  0.120368  0.005146      2.000000
 -0.056472  0.031014 -0.015107      2.000000
 -0.028236  0.048885 -0.011056      2.000000
  0.000000  0.100133 -0.010509      1.000000
  0.028236  0.118004 -0.006458      2.000000
  0.056472  0.135875 -0.002407      2.000000
  0.084708  0.153746  0.001643      1.000000
  0.000000  0.000000  0.035014      2.000000
  0.028236  0.017871  0.039064      2.000000
  0.056472  0.035742  0.043115      2.000000
  0.084708  0.053613  0.047166      2.000000
 -0.056472 -0.035742  0.026912      2.000000
 -0.028236 -0.017871  0.030963      2.000000
  0.000000  0.033378  0.031511      2.000000
  0.028236  0.051249  0.035561      2.000000
  0.056472  0.069120  0.039612      2.000000
  0.084708  0.086990  0.043663      2.000000
 -0.056472 -0.002364  0.023410      2.000000
 -0.028236  0.015507  0.027460      2.000000
  0.000000  0.066756  0.028008      2.000000
  0.028236  0.084626  0.032059      2.000000
  0.056472  0.102497  0.036109      2.000000
  0.084708  0.120368  0.040160      2.000000
 -0.056472  0.031014  0.019907      2.000000
 -0.028236  0.048885  0.023957      2.000000
  0.000000  0.100133  0.024505      2.000000
  0.028236  0.118004  0.028556      2.000000
  0.056472  0.135875  0.032606      2.000000
  0.084708  0.153746  0.036657      2.000000
 -0.056472  0.064392  0.016404      2.000000
 -0.028236  0.082263  0.020455      2.000000
  0.000000 -0.066756  0.042019      2.000000
  0.028236 -0.048885  0.046070      2.000000
  0.056472 -0.031014  0.050121      2.000000
  0.084708 -0.013143  0.054171      2.000000
 -0.056472 -0.102497  0.033918      2.000000
 -0.028236 -0.084626  0.037969      2.000000
  0.000000 -0.033378  0.038517      2.000000
  0.028236 -0.015507  0.042567      2.000000
  0.056472  0.002364  0.046618      2.000000
  0.084708  0.020235  0.050668      2.000000
 -0.056472 -0.069120  0.030415      2.000000
 -0.028236 -0.051249  0.034466      2.000000
  0.000000  0.000000  0.070027      1.000000
  0.028236  0.017871  0.074078      2.000000
  0.056472  0.035742  0.078129      2.000000
  0.084708  0.053613  0.082179      1.000000
  0.000000  0.033378  0.066525      2.000000
  0.028236  0.051249  0.070575      2.000000
  0.056472  0.069120  0.074626      2.000000
  0.084708  0.086990  0.078676      2.000000
 -0.056472 -0.002364  0.058423      2.000000
 -0.028236  0.015507  0.062474      2.000000
  0.000000  0.066756  0.063022      2.000000
  0.028236  0.084626  0.067072      2.000000
  0.056472  0.102497  0.071123      2.000000
  0.084708  0.120368  0.075174      2.000000
 -0.056472  0.031014  0.054920      2.000000
 -0.028236  0.048885  0.058971      2.000000
  0.000000  0.100133  0.059519      1.000000
  0.028236  0.118004  0.063569      2.000000
  0.056472  0.135875  0.067620      2.000000
  0.084708  0.153746  0.071671      1.000000
 


--------------------------------------------------------------------------------------------------------




 Dimension of arrays:
   k-points           NKPTS =     76   k-points in BZ     NKDIM =     76   number of bands    NBANDS=     48
   number of dos      NEDOS =    301   number of ions     NIONS =     12
   non local maximal  LDIM  =      6   non local SUM 2l+1 LMDIM =     18
   total plane-waves  NPLWV =  54432
   max r-space proj   IRMAX =      1   max aug-charges    IRDMAX=   9708
   dimension x,y,z NGX =    36 NGY =   36 NGZ =   42
   dimension x,y,z NGXF=    72 NGYF=   72 NGZF=   84
   support grid    NGXF=    72 NGYF=   72 NGZF=   84
   ions per type =               4   8
 NGX,Y,Z   is equivalent  to a cutoff of  10.14, 10.13,  9.52 a.u.
 NGXF,Y,Z  is equivalent  to a cutoff of  20.28, 20.26, 19.04 a.u.


 I would recommend the setting:
   dimension x,y,z NGX =    33 NGY =   33 NGZ =   41
 SYSTEM =  (Mn O2)4  (P1) ~ POSCAR_1 (VASP)        
 POSCAR =  (Mn O2)4  (P1) ~ POSCAR_1 (VASP)        

 Startparameter for this run:
   NWRITE =      1    write-flag & timer
   PREC   = normal    normal or accurate (medium, high low for compatibility)
   ISTART =      0    job   : 0-new  1-cont  2-samecut
   ICHARG =      2    charge: 1-file 2-atom 10-const
   ISPIN  =      2    spin polarized calculation?
   LNONCOLLINEAR =      F non collinear calculations
   LSORBIT =      F    spin-orbit coupling
   INIWAV =      1    electr: 0-lowe 1-rand  2-diag
   LASPH  =      F    aspherical Exc in radial PAW
   METAGGA=      F    non-selfconsistent MetaGGA calc.

 Electronic Relaxation 1
   ENCUT  =  520.0 eV  38.22 Ry    6.18 a.u.  10.97 10.99 13.64*2*pi/ulx,y,z
   ENINI  =  520.0     initial cutoff
   ENAUG  =  605.4 eV  augmentation charge cutoff
   NELM   =     60;   NELMIN=  2; NELMDL= -5     # of ELM steps 
   EDIFF  = 0.1E-03   stopping-criterion for ELM
   LREAL  =      F    real-space projection
   NLSPLINE    = F    spline interpolate recip. space projectors
   LCOMPAT=      F    compatible to vasp.4.4
   GGA_COMPAT  = T    GGA compatible to vasp.4.4-vasp.4.6
   LMAXPAW     = -100 max onsite density
   LMAXMIX     =    2 max onsite mixed and CHGCAR
   VOSKOWN=      1    Vosko Wilk Nusair interpolation
   ROPT   =    0.00000   0.00000
 Ionic relaxation
   EDIFFG = 0.1E-02   stopping-criterion for IOM
   NSW    =    100    number of steps for IOM
   NBLOCK =      1;   KBLOCK =    100    inner block; outer block 
   IBRION =      2    ionic relax: 0-MD 1-quasi-New 2-CG
   NFREE  =      1    steps in history (QN), initial steepest desc. (CG)
   ISIF   =      3    stress and relaxation
   IWAVPR =     11    prediction:  0-non 1-charg 2-wave 3-comb
   ISYM   =      2    0-nonsym 1-usesym 2-fastsym
   LCORR  =      T    Harris-Foulkes like correction to forces

   POTIM  = 0.5000    time-step for ionic-motion
   TEIN   =    0.0    initial temperature
   TEBEG  =    0.0;   TEEND  =   0.0 temperature during run
   SMASS  =  -3.00    Nose mass-parameter (am)
   estimated Nose-frequenzy (Omega)   =  0.10E-29 period in steps =****** mass=  -0.796E-27a.u.
   SCALEE = 1.0000    scale energy and forces
   NPACO  =    256;   APACO  = 16.0  distance and # of slots for P.C.
   PSTRESS=    0.0 pullay stress

  Mass of Ions in am
   POMASS =  54.94 16.00
  Ionic Valenz
   ZVAL   =   7.00  6.00
  Atomic Wigner-Seitz radii
   RWIGS  =  -1.00 -1.00
  virtual crystal weights 
   VCA    =   1.00  1.00
   NELECT =      76.0000    total number of electrons
   NUPDOWN=      -1.0000    fix difference up-down

 DOS related values:
   EMIN   =  10.00;   EMAX   =-10.00  energy-range for DOS
   EFERMI =   0.00
   ISMEAR =     1;   SIGMA  =   0.20  broadening in eV -4-tet -1-fermi 0-gaus

 Electronic relaxation 2 (details)
   IALGO  =     38    algorithm
   LDIAG  =      T    sub-space diagonalisation (order eigenvalues)
   LSUBROT=      T    optimize rotation matrix (better conditioning)
   TURBO    =      0    0=normal 1=particle mesh
   IRESTART =      0    0=no restart 2=restart with 2 vectors
   NREBOOT  =      0    no. of reboots
   NMIN     =      0    reboot dimension
   EREF     =   0.00    reference energy to select bands
   IMIX   =      4    mixing-type and parameters
     AMIX     =   0.40;   BMIX     =  1.00
     AMIX_MAG =   1.60;   BMIX_MAG =  1.00
     AMIN     =   0.10
     WC   =   100.;   INIMIX=   1;  MIXPRE=   1;  MAXMIX= -45

 Intra band minimization:
   WEIMIN = 0.0010     energy-eigenvalue tresh-hold
   EBREAK =  0.52E-06  absolut break condition
   DEPER  =   0.30     relativ break condition  

   TIME   =   0.40     timestep for ELM

  volume/ion in A,a.u.               =      17.54       118.35
  Fermi-wavevector in a.u.,A,eV,Ry     =   1.165827  2.203093 18.492380  1.359152
  Thomas-Fermi vector in A             =   2.302347
 
 Write flags
   LWAVE  =      F    write WAVECAR
   LCHARG =      F    write CHGCAR
   LVTOT  =      F    write LOCPOT, total local potential
   LVHAR  =      F    write LOCPOT, Hartree potential only
   LELF   =      F    write electronic localiz. function (ELF)
   LORBIT =      0    0 simple, 1 ext, 2 COOP (PROOUT)


 Dipole corrections
   LMONO  =      F    monopole corrections only (constant potential shift)
   LDIPOL =      F    correct potential (dipole corrections)
   IDIPOL =      0    1-x, 2-y, 3-z, 4-all directions 
   EPSILON=  1.0000000 bulk dielectric constant

 Exchange correlation treatment:
   GGA     =    PS    GGA type
   LEXCH   =    14    internal setting for exchange type
   VOSKOWN=      1    Vosko Wilk Nusair interpolation
   LHFCALC =     F    Hartree Fock is set to
   LHFONE  =     F    Hartree Fock one center treatment
   AEXX    =    0.0000 exact exchange contribution

 Linear response parameters
   LEPSILON=     F    determine dielectric tensor
   LRPA    =     F    only Hartree local field effects (RPA)
   LNABLA  =     F    use nabla operator in PAW spheres
   LVEL    =     F    velocity operator in full k-point grid
   LINTERFAST=   F  fast interpolation
   KINTER  =     0    interpolate to denser k-point grid
   CSHIFT  =0.1000    complex shift for real part using Kramers Kronig
   OMEGAMAX=  -1.0    maximum frequency
   DEG_THRESHOLD= 0.2000000E-02 threshold for treating states as degnerate
   RTIME   =    0.100 relaxation time in fs

 Orbital magnetization related:
   ORBITALMAG=     F  switch on orbital magnetization
   LCHIMAG   =     F  perturbation theory with respect to B field
   DQ        =  0.001000  dq finite difference perturbation B field



--------------------------------------------------------------------------------------------------------


 conjugate gradient relaxation of ions
 charge density and potential will be updated during run
 spin polarized calculation
 Variant of blocked Davidson
 Davidson routine will perform the subspace rotation
 perform sub-space diagonalisation
    after iterative eigenvector-optimisation
 modified Broyden-mixing scheme, WC =      100.0
 initial mixing is a Kerker type mixing with AMIX =  0.4000 and BMIX =      1.0000
 Hartree-type preconditioning will be used
 using additional bands           10
 reciprocal scheme for non local part
 use partial core corrections
 calculate Harris-corrections to forces 
   (improved forces if not selfconsistent)
 use gradient corrections 
 use of overlap-Matrix (Vanderbilt PP)
 Methfessel and Paxton  Order N= 1 SIGMA  =   0.20


--------------------------------------------------------------------------------------------------------


  energy-cutoff  :      520.00
  volume of cell :      210.44
      direct lattice vectors                 reciprocal lattice vectors
     5.902599810  0.000000000  0.000000000     0.169416873  0.107225139  0.024303628
    -3.160317530  4.993335690  0.000000000     0.000000000  0.200266928 -0.021017012
    -1.498521180  0.749314030  7.140064450     0.000000000  0.000000000  0.140054758

  length of vectors
     5.902599810  5.909399987  7.334000109     0.201965278  0.201366723  0.140054758


 
 k-points in units of 2pi/SCALE and weight: Automatic mesh                          
   0.00000000  0.00000000  0.00000000       0.007
   0.02823615  0.01787086  0.00405060       0.014
   0.05647229  0.03574171  0.00810121       0.014
   0.08470844  0.05361257  0.01215181       0.007
   0.00000000  0.03337782 -0.00350284       0.014
   0.02823615  0.05124868  0.00054777       0.014
   0.05647229  0.06911953  0.00459837       0.014
   0.08470844  0.08699039  0.00864898       0.014
  -0.05647229 -0.00236389 -0.01160404       0.014
  -0.02823615  0.01550696 -0.00755344       0.014
   0.00000000  0.06675564 -0.00700567       0.014
   0.02823615  0.08462650 -0.00295507       0.014
   0.05647229  0.10249736  0.00109554       0.014
   0.08470844  0.12036821  0.00514614       0.014
  -0.05647229  0.03101393 -0.01510688       0.014
  -0.02823615  0.04888479 -0.01105628       0.014
   0.00000000  0.10013346 -0.01050851       0.007
   0.02823615  0.11800432 -0.00645790       0.014
   0.05647229  0.13587518 -0.00240730       0.014
   0.08470844  0.15374603  0.00164331       0.007
   0.00000000  0.00000000  0.03501369       0.014
   0.02823615  0.01787086  0.03906429       0.014
   0.05647229  0.03574171  0.04311490       0.014
   0.08470844  0.05361257  0.04716550       0.014
  -0.05647229 -0.03574171  0.02691248       0.014
  -0.02823615 -0.01787086  0.03096308       0.014
   0.00000000  0.03337782  0.03151085       0.014
   0.02823615  0.05124868  0.03556146       0.014
   0.05647229  0.06911953  0.03961206       0.014
   0.08470844  0.08699039  0.04366267       0.014
  -0.05647229 -0.00236389  0.02340964       0.014
  -0.02823615  0.01550696  0.02746025       0.014
   0.00000000  0.06675564  0.02800802       0.014
   0.02823615  0.08462650  0.03205862       0.014
   0.05647229  0.10249736  0.03610923       0.014
   0.08470844  0.12036821  0.04015983       0.014
  -0.05647229  0.03101393  0.01990681       0.014
  -0.02823615  0.04888479  0.02395741       0.014
   0.00000000  0.10013346  0.02450518       0.014
   0.02823615  0.11800432  0.02855579       0.014
   0.05647229  0.13587518  0.03260639       0.014
   0.08470844  0.15374603  0.03665700       0.014
  -0.05647229  0.06439175  0.01640397       0.014
  -0.02823615  0.08226261  0.02045458       0.014
   0.00000000 -0.06675564  0.04201936       0.014
   0.02823615 -0.04888479  0.04606996       0.014
   0.05647229 -0.03101393  0.05012057       0.014
   0.08470844 -0.01314307  0.05417117       0.014
  -0.05647229 -0.10249736  0.03391815       0.014
  -0.02823615 -0.08462650  0.03796876       0.014
   0.00000000 -0.03337782  0.03851652       0.014
   0.02823615 -0.01550696  0.04256713       0.014
   0.05647229  0.00236389  0.04661773       0.014
   0.08470844  0.02023475  0.05066834       0.014
  -0.05647229 -0.06911953  0.03041532       0.014
  -0.02823615 -0.05124868  0.03446592       0.014
   0.00000000  0.00000000  0.07002738       0.007
   0.02823615  0.01787086  0.07407798       0.014
   0.05647229  0.03574171  0.07812859       0.014
   0.08470844  0.05361257  0.08217919       0.007
   0.00000000  0.03337782  0.06652454       0.014
   0.02823615  0.05124868  0.07057515       0.014
   0.05647229  0.06911953  0.07462575       0.014
   0.08470844  0.08699039  0.07867636       0.014
  -0.05647229 -0.00236389  0.05842333       0.014
  -0.02823615  0.01550696  0.06247394       0.014
   0.00000000  0.06675564  0.06302171       0.014
   0.02823615  0.08462650  0.06707231       0.014
   0.05647229  0.10249736  0.07112292       0.014
   0.08470844  0.12036821  0.07517352       0.014
  -0.05647229  0.03101393  0.05492050       0.014
  -0.02823615  0.04888479  0.05897110       0.014
   0.00000000  0.10013346  0.05951887       0.007
   0.02823615  0.11800432  0.06356948       0.014
   0.05647229  0.13587518  0.06762008       0.014
   0.08470844  0.15374603  0.07167069       0.007
 
 k-points in reciprocal lattice and weights: Automatic mesh                          
   0.00000000  0.00000000  0.00000000       0.007
   0.16666667  0.00000000 -0.00000000       0.014
   0.33333333  0.00000000  0.00000000       0.014
   0.50000000  0.00000000 -0.00000000       0.007
   0.00000000  0.16666667  0.00000000       0.014
   0.16666667  0.16666667 -0.00000000       0.014
   0.33333333  0.16666667 -0.00000000       0.014
   0.50000000  0.16666667 -0.00000000       0.014
  -0.33333333  0.16666667  0.00000000       0.014
  -0.16666667  0.16666667  0.00000000       0.014
   0.00000000  0.33333333 -0.00000000       0.014
   0.16666667  0.33333333 -0.00000000       0.014
   0.33333333  0.33333333 -0.00000000       0.014
   0.50000000  0.33333333 -0.00000000       0.014
  -0.33333333  0.33333333 -0.00000000       0.014
  -0.16666667  0.33333333 -0.00000000       0.014
   0.00000000  0.50000000 -0.00000000       0.007
   0.16666667  0.50000000 -0.00000000       0.014
   0.33333333  0.50000000 -0.00000000       0.014
   0.50000000  0.50000000 -0.00000000       0.007
   0.00000000  0.00000000  0.25000000       0.014
   0.16666667  0.00000000  0.25000000       0.014
   0.33333333  0.00000000  0.25000000       0.014
   0.50000000  0.00000000  0.25000000       0.014
  -0.33333333 -0.00000000  0.25000000       0.014
  -0.16666667 -0.00000000  0.25000000       0.014
   0.00000000  0.16666667  0.25000000       0.014
   0.16666667  0.16666667  0.25000000       0.014
   0.33333333  0.16666667  0.25000000       0.014
   0.50000000  0.16666667  0.25000000       0.014
  -0.33333333  0.16666667  0.25000000       0.014
  -0.16666667  0.16666667  0.25000000       0.014
   0.00000000  0.33333333  0.25000000       0.014
   0.16666667  0.33333333  0.25000000       0.014
   0.33333333  0.33333333  0.25000000       0.014
   0.50000000  0.33333333  0.25000000       0.014
  -0.33333333  0.33333333  0.25000000       0.014
  -0.16666667  0.33333333  0.25000000       0.014
   0.00000000  0.50000000  0.25000000       0.014
   0.16666667  0.50000000  0.25000000       0.014
   0.33333333  0.50000000  0.25000000       0.014
   0.50000000  0.50000000  0.25000000       0.014
  -0.33333333  0.50000000  0.25000000       0.014
  -0.16666667  0.50000000  0.25000000       0.014
   0.00000000 -0.33333333  0.25000000       0.014
   0.16666667 -0.33333333  0.25000000       0.014
   0.33333333 -0.33333333  0.25000000       0.014
   0.50000000 -0.33333333  0.25000000       0.014
  -0.33333333 -0.33333333  0.25000000       0.014
  -0.16666667 -0.33333333  0.25000000       0.014
   0.00000000 -0.16666667  0.25000000       0.014
   0.16666667 -0.16666667  0.25000000       0.014
   0.33333333 -0.16666667  0.25000000       0.014
   0.50000000 -0.16666667  0.25000000       0.014
  -0.33333333 -0.16666667  0.25000000       0.014
  -0.16666667 -0.16666667  0.25000000       0.014
   0.00000000  0.00000000  0.50000000       0.007
   0.16666667  0.00000000  0.50000000       0.014
   0.33333333  0.00000000  0.50000000       0.014
   0.50000000  0.00000000  0.50000000       0.007
   0.00000000  0.16666667  0.50000000       0.014
   0.16666667  0.16666667  0.50000000       0.014
   0.33333333  0.16666667  0.50000000       0.014
   0.50000000  0.16666667  0.50000000       0.014
  -0.33333333  0.16666667  0.50000000       0.014
  -0.16666667  0.16666667  0.50000000       0.014
   0.00000000  0.33333333  0.50000000       0.014
   0.16666667  0.33333333  0.50000000       0.014
   0.33333333  0.33333333  0.50000000       0.014
   0.50000000  0.33333333  0.50000000       0.014
  -0.33333333  0.33333333  0.50000000       0.014
  -0.16666667  0.33333333  0.50000000       0.014
   0.00000000  0.50000000  0.50000000       0.007
   0.16666667  0.50000000  0.50000000       0.014
   0.33333333  0.50000000  0.50000000       0.014
   0.50000000  0.50000000  0.50000000       0.007
 
 position of ions in fractional coordinates (direct lattice) 
   0.00000000  0.00000000  0.00000000
   0.00000000  0.50000000  0.00000000
   0.50000000  0.00000000  0.00000000
   0.50000000  0.50000000  0.00000000
   0.19430000  0.81335002  0.13959999
   0.80570000  0.18664998  0.86040002
   0.19430000  0.31334996  0.13959999
   0.80570000  0.68665004  0.86040002
   0.69430000  0.81335002  0.13959999
   0.30570000  0.18664998  0.86040002
   0.69430000  0.31334996  0.13959999
   0.30570000  0.68665004  0.86040002
 
 position of ions in cartesian coordinates  (Angst):
   0.00000000  0.00000000  0.00000000
  -1.58015876  2.49666785  0.00000000
   2.95129990  0.00000000  0.00000000
   1.37114114  2.49666785  0.00000000
  -1.63276272  4.16593391  0.99675293
   2.87652381  1.57671581  6.14331160
  -0.05260377  1.66926577  0.99675293
   1.29636486  4.07338396  6.14331160
   1.31853718  4.16593391  0.99675293
  -0.07477610  1.57671581  6.14331160
   2.89869613  1.66926577  0.99675293
  -1.65493505  4.07338396  6.14331160
 


--------------------------------------------------------------------------------------------------------


 k-point  1 :   0.0000 0.0000 0.0000  plane waves:    5663
 k-point  2 :   0.1667 0.0000-0.0000  plane waves:    5657
 k-point  3 :   0.3333 0.0000 0.0000  plane waves:    5653
 k-point  4 :   0.5000 0.0000-0.0000  plane waves:    5668
 k-point  5 :   0.0000 0.1667 0.0000  plane waves:    5663
 k-point  6 :   0.1667 0.1667-0.0000  plane waves:    5649
 k-point  7 :   0.3333 0.1667-0.0000  plane waves:    5661
 k-point  8 :   0.5000 0.1667-0.0000  plane waves:    5675
 k-point  9 :  -0.3333 0.1667 0.0000  plane waves:    5674
 k-point 10 :  -0.1667 0.1667 0.0000  plane waves:    5674
 k-point 11 :   0.0000 0.3333-0.0000  plane waves:    5655
 k-point 12 :   0.1667 0.3333-0.0000  plane waves:    5660
 k-point 13 :   0.3333 0.3333-0.0000  plane waves:    5660
 k-point 14 :   0.5000 0.3333-0.0000  plane waves:    5680
 k-point 15 :  -0.3333 0.3333-0.0000  plane waves:    5686
 k-point 16 :  -0.1667 0.3333-0.0000  plane waves:    5676
 k-point 17 :   0.0000 0.5000-0.0000  plane waves:    5654
 k-point 18 :   0.1667 0.5000-0.0000  plane waves:    5685
 k-point 19 :   0.3333 0.5000-0.0000  plane waves:    5686
 k-point 20 :   0.5000 0.5000-0.0000  plane waves:    5692
 k-point 21 :   0.0000 0.0000 0.2500  plane waves:    5657
 k-point 22 :   0.1667 0.0000 0.2500  plane waves:    5645
 k-point 23 :   0.3333 0.0000 0.2500  plane waves:    5659
 k-point 24 :   0.5000 0.0000 0.2500  plane waves:    5651
 k-point 25 :  -0.3333-0.0000 0.2500  plane waves:    5665
 k-point 26 :  -0.1667-0.0000 0.2500  plane waves:    5662
 k-point 27 :   0.0000 0.1667 0.2500  plane waves:    5669
 k-point 28 :   0.1667 0.1667 0.2500  plane waves:    5660
 k-point 29 :   0.3333 0.1667 0.2500  plane waves:    5669
 k-point 30 :   0.5000 0.1667 0.2500  plane waves:    5671
 k-point 31 :  -0.3333 0.1667 0.2500  plane waves:    5669
 k-point 32 :  -0.1667 0.1667 0.2500  plane waves:    5684
 k-point 33 :   0.0000 0.3333 0.2500  plane waves:    5656
 k-point 34 :   0.1667 0.3333 0.2500  plane waves:    5655
 k-point 35 :   0.3333 0.3333 0.2500  plane waves:    5671
 k-point 36 :   0.5000 0.3333 0.2500  plane waves:    5681
 k-point 37 :  -0.3333 0.3333 0.2500  plane waves:    5682
 k-point 38 :  -0.1667 0.3333 0.2500  plane waves:    5690
 k-point 39 :   0.0000 0.5000 0.2500  plane waves:    5650
 k-point 40 :   0.1667 0.5000 0.2500  plane waves:    5667
 k-point 41 :   0.3333 0.5000 0.2500  plane waves:    5670
 k-point 42 :   0.5000 0.5000 0.2500  plane waves:    5680
 k-point 43 :  -0.3333 0.5000 0.2500  plane waves:    5687
 k-point 44 :  -0.1667 0.5000 0.2500  plane waves:    5675
 k-point 45 :   0.0000-0.3333 0.2500  plane waves:    5648
 k-point 46 :   0.1667-0.3333 0.2500  plane waves:    5664
 k-point 47 :   0.3333-0.3333 0.2500  plane waves:    5675
 k-point 48 :   0.5000-0.3333 0.2500  plane waves:    5676
 k-point 49 :  -0.3333-0.3333 0.2500  plane waves:    5679
 k-point 50 :  -0.1667-0.3333 0.2500  plane waves:    5665
 k-point 51 :   0.0000-0.1667 0.2500  plane waves:    5655
 k-point 52 :   0.1667-0.1667 0.2500  plane waves:    5665
 k-point 53 :   0.3333-0.1667 0.2500  plane waves:    5676
 k-point 54 :   0.5000-0.1667 0.2500  plane waves:    5665
 k-point 55 :  -0.3333-0.1667 0.2500  plane waves:    5660
 k-point 56 :  -0.1667-0.1667 0.2500  plane waves:    5651
 k-point 57 :   0.0000 0.0000 0.5000  plane waves:    5668
 k-point 58 :   0.1667 0.0000 0.5000  plane waves:    5659
 k-point 59 :   0.3333 0.0000 0.5000  plane waves:    5649
 k-point 60 :   0.5000 0.0000 0.5000  plane waves:    5650
 k-point 61 :   0.0000 0.1667 0.5000  plane waves:    5659
 k-point 62 :   0.1667 0.1667 0.5000  plane waves:    5663
 k-point 63 :   0.3333 0.1667 0.5000  plane waves:    5667
 k-point 64 :   0.5000 0.1667 0.5000  plane waves:    5660
 k-point 65 :  -0.3333 0.1667 0.5000  plane waves:    5676
 k-point 66 :  -0.1667 0.1667 0.5000  plane waves:    5665
 k-point 67 :   0.0000 0.3333 0.5000  plane waves:    5646
 k-point 68 :   0.1667 0.3333 0.5000  plane waves:    5661
 k-point 69 :   0.3333 0.3333 0.5000  plane waves:    5670
 k-point 70 :   0.5000 0.3333 0.5000  plane waves:    5683
 k-point 71 :  -0.3333 0.3333 0.5000  plane waves:    5676
 k-point 72 :  -0.1667 0.3333 0.5000  plane waves:    5660
 k-point 73 :   0.0000 0.5000 0.5000  plane waves:    5652
 k-point 74 :   0.1667 0.5000 0.5000  plane waves:    5651
 k-point 75 :   0.3333 0.5000 0.5000  plane waves:    5674
 k-point 76 :   0.5000 0.5000 0.5000  plane waves:    5676

 maximum and minimum number of plane-waves per node :      1449     1393

 maximum number of plane-waves:      5692
 maximum index in each direction: 
   IXMAX=   11   IYMAX=   11   IZMAX=   13
   IXMIN=  -11   IYMIN=  -11   IZMIN=  -14

 WARNING: aliasing errors must be expected set NGX to  46 to avoid them
 WARNING: aliasing errors must be expected set NGY to  46 to avoid them
 WARNING: aliasing errors must be expected set NGZ to  56 to avoid them
 aliasing errors are usually negligible using standard VASP settings
 and one can safely disregard these warnings

 parallel 3D FFT for wavefunctions:
    minimum data exchange during FFTs selected (reduces bandwidth)
 parallel 3D FFT for charge:
    minimum data exchange during FFTs selected (reduces bandwidth)


 total amount of memory used by VASP on root node    86780. kBytes
========================================================================

   base      :      30000. kBytes
   nonl-proj :      31618. kBytes
   fftplans  :       1012. kBytes
   grid      :       2578. kBytes
   one-center:         93. kBytes
   wavefun   :      21479. kBytes
 
 Broyden mixing: mesh for mixing (old mesh)
   NGX = 21   NGY = 21   NGZ = 27
  (NGX  = 72   NGY  = 72   NGZ  = 84)
  gives a total of  11907 points

 initial charge density was supplied:
 charge density of overlapping atoms calculated
 number of electron      76.0000000 magnetization       0.0000000
 keeping initial charge density in first step


--------------------------------------------------------------------------------------------------------


 Maximum index for augmentation-charges          791 (set IRDMAX)


--------------------------------------------------------------------------------------------------------


 First call to EWALD:  gamma=   0.298
 Maximum number of real-space cells 3x 3x 2
 Maximum number of reciprocal cells 3x 3x 3

 FEWALD executed in parallel
    FEWALD:  cpu time    0.00: real time    0.00


----------------------------------------- Iteration    1(   1)  ---------------------------------------


    POTLOK:  cpu time    0.03: real time    0.03
    SETDIJ:  cpu time    0.00: real time    0.01
     EDDAV:  cpu time    5.09: real time    5.09
       DOS:  cpu time    0.00: real time    0.00
    --------------------------------------------
      LOOP:  cpu time    5.13: real time    5.19

 eigenvalue-minimisations  : 14592
 total energy-change (2. order) : 0.1087543E+04  (-0.3236140E+04)
 number of electron      76.0000000 magnetization      -0.0000000
 augmentation part       76.0000000 magnetization      -0.0000000

 Free energy of the ion-electron system (eV)
  ---------------------------------------------------
  alpha Z        PSCENC =       180.83915956
  Ewald energy   TEWEN  =      -935.11960250
  -1/2 Hartree   DENC   =     -4074.88344606
  -exchange  EXHF       =         0.00000000
  -V(xc)+E(xc)   XCENC  =       183.18713804
  PAW double counting   =      4385.75833043    -4339.47960987
  entropy T*S    EENTRO =         0.00346273
  eigenvalues    EBANDS =       576.66718328
  atomic energy  EATOM  =      5110.57042958
  ---------------------------------------------------
  free energy    TOTEN  =      1087.54304520 eV

  energy without entropy =     1087.53958246  energy(sigma->0) =     1087.54189095


--------------------------------------------------------------------------------------------------------




----------------------------------------- Iteration    1(   2)  ---------------------------------------


     EDDAV:  cpu time    5.13: real time    5.13
       DOS:  cpu time    0.00: real time    0.00
    --------------------------------------------
      LOOP:  cpu time    5.13: real time    5.22

 eigenvalue-minimisations  : 14792
 total energy-change (2. order) :-0.9047083E+03  (-0.8666823E+03)
 number of electron      76.0000000 magnetization      -0.0000000
 augmentation part       76.0000000 magnetization      -0.0000000

 Free energy of the ion-electron system (eV)
  ---------------------------------------------------
  alpha Z        PSCENC =       180.83915956
  Ewald energy   TEWEN  =      -935.11960250
  -1/2 Hartree   DENC   =     -4074.88344606
  -exchange  EXHF       =         0.00000000
  -V(xc)+E(xc)   XCENC  =       183.18713804
  PAW double counting   =      4385.75833043    -4339.47960987
  entropy T*S    EENTRO =         0.00111612
  eigenvalues    EBANDS =      -328.03876003
  atomic energy  EATOM  =      5110.57042958
  ---------------------------------------------------
  free energy    TOTEN  =       182.83475528 eV

  energy without entropy =      182.83363916  energy(sigma->0) =      182.83438324


--------------------------------------------------------------------------------------------------------




----------------------------------------- Iteration    1(   3)  ---------------------------------------


     EDDAV:  cpu time    7.54: real time    7.54
       DOS:  cpu time    0.00: real time    0.00
    --------------------------------------------
      LOOP:  cpu time    7.54: real time    7.73

 eigenvalue-minimisations  : 24424
 total energy-change (2. order) :-0.2813790E+03  (-0.2664640E+03)
 number of electron      76.0000000 magnetization      -0.0000000
 augmentation part       76.0000000 magnetization      -0.0000000

 Free energy of the ion-electron system (eV)
  ---------------------------------------------------
  alpha Z        PSCENC =       180.83915956
  Ewald energy   TEWEN  =      -935.11960250
  -1/2 Hartree   DENC   =     -4074.88344606
  -exchange  EXHF       =         0.00000000
  -V(xc)+E(xc)   XCENC  =       183.18713804
  PAW double counting   =      4385.75833043    -4339.47960987
  entropy T*S    EENTRO =         0.01607667
  eigenvalues    EBANDS =      -609.43270737
  atomic energy  EATOM  =      5110.57042958
  ---------------------------------------------------
  free energy    TOTEN  =       -98.54423151 eV

  energy without entropy =      -98.56030818  energy(sigma->0) =      -98.54959040


--------------------------------------------------------------------------------------------------------




----------------------------------------- Iteration    1(   4)  ---------------------------------------


     EDDAV:  cpu time    7.27: real time    7.27
       DOS:  cpu time    0.00: real time    0.00
    --------------------------------------------
      LOOP:  cpu time    7.27: real time    7.35

 eigenvalue-minimisations  : 23632
 total energy-change (2. order) :-0.3094246E+02  (-0.3041804E+02)
 number of electron      76.0000000 magnetization      -0.0000000
 augmentation part       76.0000000 magnetization      -0.0000000

 Free energy of the ion-electron system (eV)
  ---------------------------------------------------
  alpha Z        PSCENC =       180.83915956
  Ewald energy   TEWEN  =      -935.11960250
  -1/2 Hartree   DENC   =     -4074.88344606
  -exchange  EXHF       =         0.00000000
  -V(xc)+E(xc)   XCENC  =       183.18713804
  PAW double counting   =      4385.75833043    -4339.47960987
  entropy T*S    EENTRO =         0.02792000
  eigenvalues    EBANDS =      -640.38701341
  atomic energy  EATOM  =      5110.57042958
  ---------------------------------------------------
  free energy    TOTEN  =      -129.48669422 eV

  energy without entropy =     -129.51461423  energy(sigma->0) =     -129.49600089


--------------------------------------------------------------------------------------------------------




----------------------------------------- Iteration    1(   5)  ---------------------------------------


     EDDAV:  cpu time    7.17: real time    7.17
       DOS:  cpu time    0.00: real time    0.00
    CHARGE:  cpu time    0.33: real time    0.35
    MIXING:  cpu time    0.00: real time    0.00
    --------------------------------------------
      LOOP:  cpu time    7.51: real time    7.61

 eigenvalue-minimisations  : 23240
 total energy-change (2. order) :-0.8166982E+00  (-0.8063380E+00)
 number of electron      75.9999935 magnetization       0.0000000
 augmentation part       14.7256560 magnetization       0.0000000

 Broyden mixing:
  rms(total) = 0.50649E+01    rms(broyden)= 0.50644E+01
  rms(prec ) = 0.71317E+01
  weight for this iteration     100.00

 Free energy of the ion-electron system (eV)
  ---------------------------------------------------
  alpha Z        PSCENC =       180.83915956
  Ewald energy   TEWEN  =      -935.11960250
  -1/2 Hartree   DENC   =     -4074.88344606
  -exchange  EXHF       =         0.00000000
  -V(xc)+E(xc)   XCENC  =       183.18713804
  PAW double counting   =      4385.75833043    -4339.47960987
  entropy T*S    EENTRO =         0.02834503
  eigenvalues    EBANDS =      -641.20413662
  atomic energy  EATOM  =      5110.57042958
  ---------------------------------------------------
  free energy    TOTEN  =      -130.30339241 eV

  energy without entropy =     -130.33173744  energy(sigma->0) =     -130.31284076


--------------------------------------------------------------------------------------------------------




----------------------------------------- Iteration    1(   6)  ---------------------------------------


    POTLOK:  cpu time    0.03: real time    0.03
    SETDIJ:  cpu time    0.01: real time    0.01
     EDDAV:  cpu time    7.44: real time    7.45
       DOS:  cpu time    0.00: real time    0.01
    CHARGE:  cpu time    0.34: real time    0.34
    MIXING:  cpu time    0.00: real time    0.00
    --------------------------------------------
      LOOP:  cpu time    7.82: real time    7.90

 eigenvalue-minimisations  : 24224
 total energy-change (2. order) :-0.8376220E+01  (-0.4133306E+02)
 number of electron      75.9999920 magnetization       0.0000000
 augmentation part       25.7617887 magnetization       0.0000000

 Broyden mixing:
  rms(total) = 0.10508E+02    rms(broyden)= 0.10507E+02
  rms(prec ) = 0.14517E+02
  weight for this iteration     100.00

 eigenvalues of (default mixing * dielectric matrix)
  average eigenvalue GAMMA=   0.1724
  0.1724

 Free energy of the ion-electron system (eV)
  ---------------------------------------------------
  alpha Z        PSCENC =       180.83915956
  Ewald energy   TEWEN  =      -935.11960250
  -1/2 Hartree   DENC   =     -4093.73586328
  -exchange  EXHF       =         0.00000000
  -V(xc)+E(xc)   XCENC  =       190.54499010
  PAW double counting   =      5053.42987502    -4995.99951363
  entropy T*S    EENTRO =        -0.01502868
  eigenvalues    EBANDS =      -649.19405835
  atomic energy  EATOM  =      5110.57042958
  ---------------------------------------------------
  free energy    TOTEN  =      -138.67961218 eV

  energy without entropy =     -138.66458350  energy(sigma->0) =     -138.67460262


--------------------------------------------------------------------------------------------------------




----------------------------------------- Iteration    1(   7)  ---------------------------------------


    POTLOK:  cpu time    0.03: real time    0.03
    SETDIJ:  cpu time    0.01: real time    0.01
     EDDAV:  cpu time    8.35: real time    8.36
       DOS:  cpu time    0.00: real time    0.00
    CHARGE:  cpu time    0.33: real time    0.33
    MIXING:  cpu time    0.00: real time    0.00
    --------------------------------------------
      LOOP:  cpu time    8.72: real time    8.82

 eigenvalue-minimisations  : 27792
 total energy-change (2. order) : 0.4017402E+02  (-0.2940316E+02)
 number of electron      75.9999940 magnetization       0.0000000
 augmentation part       15.7942111 magnetization       0.0000000

 Broyden mixing:
  rms(total) = 0.20142E+01    rms(broyden)= 0.20127E+01
  rms(prec ) = 0.26155E+01
  weight for this iteration     100.00

 eigenvalues of (default mixing * dielectric matrix)
  average eigenvalue GAMMA=   0.5752
  0.8957  0.2548

 Free energy of the ion-electron system (eV)
  ---------------------------------------------------
  alpha Z        PSCENC =       180.83915956
  Ewald energy   TEWEN  =      -935.11960250
  -1/2 Hartree   DENC   =     -4102.00609047
  -exchange  EXHF       =         0.00000000
  -V(xc)+E(xc)   XCENC  =       183.41562732
  PAW double counting   =      5285.27954917    -5239.89131587
  entropy T*S    EENTRO =         0.01786726
  eigenvalues    EBANDS =      -581.61121835
  atomic energy  EATOM  =      5110.57042958
  ---------------------------------------------------
  free energy    TOTEN  =       -98.50559430 eV

  energy without entropy =      -98.52346156  energy(sigma->0) =      -98.51155005


--------------------------------------------------------------------------------------------------------




----------------------------------------- Iteration    1(   8)  ---------------------------------------


    POTLOK:  cpu time    0.03: real time    0.03
    SETDIJ:  cpu time    0.01: real time    0.01
     EDDAV:  cpu time    6.91: real time    6.92
       DOS:  cpu time    0.00: real time    0.00
    CHARGE:  cpu time    0.33: real time    0.33
    MIXING:  cpu time    0.00: real time    0.00
    --------------------------------------------
      LOOP:  cpu time    7.29: real time    7.38

 eigenvalue-minimisations  : 22176
 total energy-change (2. order) :-0.6915535E+00  (-0.2859858E+01)
 number of electron      75.9999938 magnetization       0.0000000
 augmentation part       16.9763441 magnetization       0.0000000

 Broyden mixing:
  rms(total) = 0.91904E+00    rms(broyden)= 0.91888E+00
  rms(prec ) = 0.11409E+01
  weight for this iteration     100.00

 eigenvalues of (default mixing * dielectric matrix)
  average eigenvalue GAMMA=   0.8146
  1.4511  0.2553  0.7374

 Free energy of the ion-electron system (eV)
  ---------------------------------------------------
  alpha Z        PSCENC =       180.83915956
  Ewald energy   TEWEN  =      -935.11960250
  -1/2 Hartree   DENC   =     -4069.05287042
  -exchange  EXHF       =         0.00000000
  -V(xc)+E(xc)   XCENC  =       185.84833688
  PAW double counting   =      5678.37085055    -5633.62830704
  entropy T*S    EENTRO =         0.01492294
  eigenvalues    EBANDS =      -617.04006738
  atomic energy  EATOM  =      5110.57042958
  ---------------------------------------------------
  free energy    TOTEN  =       -99.19714782 eV

  energy without entropy =      -99.21207076  energy(sigma->0) =      -99.20212214


--------------------------------------------------------------------------------------------------------




----------------------------------------- Iteration    1(   9)  ---------------------------------------


    POTLOK:  cpu time    0.03: real time    0.03
    SETDIJ:  cpu time    0.01: real time    0.01
     EDDAV:  cpu time    8.36: real time    8.36
       DOS:  cpu time    0.00: real time    0.00
    CHARGE:  cpu time    0.33: real time    0.33
    MIXING:  cpu time    0.00: real time    0.00
    --------------------------------------------
      LOOP:  cpu time    8.73: real time    8.92

 eigenvalue-minimisations  : 27728
 total energy-change (2. order) : 0.1215493E+00  (-0.2790667E+00)
 number of electron      75.9999937 magnetization       0.0000000
 augmentation part       17.5657205 magnetization       0.0000000

 Broyden mixing:
  rms(total) = 0.41775E+00    rms(broyden)= 0.41765E+00
  rms(prec ) = 0.51982E+00
  weight for this iteration     100.00

 eigenvalues of (default mixing * dielectric matrix)
  average eigenvalue GAMMA=   0.9081
  1.8900  0.2582  0.8969  0.5874

 Free energy of the ion-electron system (eV)
  ---------------------------------------------------
  alpha Z        PSCENC =       180.83915956
  Ewald energy   TEWEN  =      -935.11960250
  -1/2 Hartree   DENC   =     -4072.70850359
  -exchange  EXHF       =         0.00000000
  -V(xc)+E(xc)   XCENC  =       187.63025491
  PAW double counting   =      5966.11044052    -5922.67623867
  entropy T*S    EENTRO =         0.02105621
  eigenvalues    EBANDS =      -613.74259457
  atomic energy  EATOM  =      5110.57042958
  ---------------------------------------------------
  free energy    TOTEN  =       -99.07559856 eV

  energy without entropy =      -99.09665477  energy(sigma->0) =      -99.08261730


--------------------------------------------------------------------------------------------------------




----------------------------------------- Iteration    1(  10)  ---------------------------------------


    POTLOK:  cpu time    0.03: real time    0.03
    SETDIJ:  cpu time    0.00: real time    0.01
     EDDAV:  cpu time    6.77: real time    6.78
       DOS:  cpu time    0.00: real time    0.00
    CHARGE:  cpu time    0.33: real time    0.33
    MIXING:  cpu time    0.00: real time    0.00
    --------------------------------------------
      LOOP:  cpu time    7.14: real time    7.23

 eigenvalue-minimisations  : 21696
 total energy-change (2. order) : 0.1909320E-01  (-0.3606262E-01)
 number of electron      75.9999938 magnetization       0.0000000
 augmentation part       17.4346993 magnetization       0.0000000

 Broyden mixing:
  rms(total) = 0.26512E+00    rms(broyden)= 0.26512E+00
  rms(prec ) = 0.32799E+00
  weight for this iteration     100.00

 eigenvalues of (default mixing * dielectric matrix)
  average eigenvalue GAMMA=   0.9383
  1.9494  0.2580  0.9164  0.9164  0.6514

 Free energy of the ion-electron system (eV)
  ---------------------------------------------------
  alpha Z        PSCENC =       180.83915956
  Ewald energy   TEWEN  =      -935.11960250
  -1/2 Hartree   DENC   =     -4076.44379274
  -exchange  EXHF       =         0.00000000
  -V(xc)+E(xc)   XCENC  =       188.22202599
  PAW double counting   =      6046.36572934    -6004.28796584
  entropy T*S    EENTRO =         0.02076726
  eigenvalues    EBANDS =      -609.22325600
  atomic energy  EATOM  =      5110.57042958
  ---------------------------------------------------
  free energy    TOTEN  =       -99.05650536 eV

  energy without entropy =      -99.07727261  energy(sigma->0) =      -99.06342777


--------------------------------------------------------------------------------------------------------




----------------------------------------- Iteration    1(  11)  ---------------------------------------


    POTLOK:  cpu time    0.03: real time    0.03
    SETDIJ:  cpu time    0.00: real time    0.01
     EDDAV:  cpu time    7.96: real time    7.97
       DOS:  cpu time    0.00: real time    0.00
    CHARGE:  cpu time    0.33: real time    0.33
    MIXING:  cpu time    0.00: real time    0.00
    --------------------------------------------
      LOOP:  cpu time    8.33: real time    8.52

 eigenvalue-minimisations  : 26200
 total energy-change (2. order) : 0.1412989E-01  (-0.5199497E-02)
 number of electron      75.9999938 magnetization       0.0000000
 augmentation part       17.3800699 magnetization       0.0000000

 Broyden mixing:
  rms(total) = 0.11941E+00    rms(broyden)= 0.11941E+00
  rms(prec ) = 0.15478E+00
  weight for this iteration     100.00

 eigenvalues of (default mixing * dielectric matrix)
  average eigenvalue GAMMA=   1.0052
  2.2639  0.2580  1.0796  1.0796  0.6750  0.6750

 Free energy of the ion-electron system (eV)
  ---------------------------------------------------
  alpha Z        PSCENC =       180.83915956
  Ewald energy   TEWEN  =      -935.11960250
  -1/2 Hartree   DENC   =     -4076.65874709
  -exchange  EXHF       =         0.00000000
  -V(xc)+E(xc)   XCENC  =       187.88854277
  PAW double counting   =      6095.29997804    -6053.60616327
  entropy T*S    EENTRO =         0.01955377
  eigenvalues    EBANDS =      -608.27552633
  atomic energy  EATOM  =      5110.57042958
  ---------------------------------------------------
  free energy    TOTEN  =       -99.04237547 eV

  energy without entropy =      -99.06192924  energy(sigma->0) =      -99.04889339


--------------------------------------------------------------------------------------------------------




----------------------------------------- Iteration    1(  12)  ---------------------------------------


    POTLOK:  cpu time    0.03: real time    0.03
    SETDIJ:  cpu time    0.00: real time    0.01
     EDDAV:  cpu time    7.60: real time    7.60
       DOS:  cpu time    0.00: real time    0.00
    CHARGE:  cpu time    0.33: real time    0.33
    MIXING:  cpu time    0.00: real time    0.00
    --------------------------------------------
      LOOP:  cpu time    7.97: real time    8.05

 eigenvalue-minimisations  : 24768
 total energy-change (2. order) : 0.5615707E-02  (-0.1422959E-02)
 number of electron      75.9999938 magnetization       0.0000000
 augmentation part       17.3329773 magnetization       0.0000000

 Broyden mixing:
  rms(total) = 0.48880E-01    rms(broyden)= 0.48873E-01
  rms(prec ) = 0.62075E-01
  weight for this iteration     100.00

 eigenvalues of (default mixing * dielectric matrix)
  average eigenvalue GAMMA=   1.0296
  2.2829  0.2580  1.2754  1.2754  0.6140  0.7508  0.7508

 Free energy of the ion-electron system (eV)
  ---------------------------------------------------
  alpha Z        PSCENC =       180.83915956
  Ewald energy   TEWEN  =      -935.11960250
  -1/2 Hartree   DENC   =     -4078.54567957
  -exchange  EXHF       =         0.00000000
  -V(xc)+E(xc)   XCENC  =       187.89355942
  PAW double counting   =      6131.57430690    -6090.44822374
  entropy T*S    EENTRO =         0.01895777
  eigenvalues    EBANDS =      -605.81966719
  atomic energy  EATOM  =      5110.57042958
  ---------------------------------------------------
  free energy    TOTEN  =       -99.03675976 eV

  energy without entropy =      -99.05571753  energy(sigma->0) =      -99.04307902


--------------------------------------------------------------------------------------------------------




----------------------------------------- Iteration    1(  13)  ---------------------------------------


    POTLOK:  cpu time    0.03: real time    0.03
    SETDIJ:  cpu time    0.01: real time    0.01
     EDDAV:  cpu time    7.90: real time    7.90
       DOS:  cpu time    0.00: real time    0.00
    CHARGE:  cpu time    0.33: real time    0.33
    MIXING:  cpu time    0.00: real time    0.00
    --------------------------------------------
      LOOP:  cpu time    8.27: real time    8.36

 eigenvalue-minimisations  : 25920
 total energy-change (2. order) : 0.1435449E-02  (-0.6269454E-03)
 number of electron      75.9999938 magnetization       0.0000000
 augmentation part       17.2993880 magnetization       0.0000000

 Broyden mixing:
  rms(total) = 0.12639E-01    rms(broyden)= 0.12627E-01
  rms(prec ) = 0.19091E-01
  weight for this iteration     100.00

 eigenvalues of (default mixing * dielectric matrix)
  average eigenvalue GAMMA=   1.0523
  2.3914  1.3946  1.3946  0.2580  0.8461  0.8461  0.6287  0.6586

 Free energy of the ion-electron system (eV)
  ---------------------------------------------------
  alpha Z        PSCENC =       180.83915956
  Ewald energy   TEWEN  =      -935.11960250
  -1/2 Hartree   DENC   =     -4079.68371834
  -exchange  EXHF       =         0.00000000
  -V(xc)+E(xc)   XCENC  =       187.77671374
  PAW double counting   =      6129.12167422    -6087.99522246
  entropy T*S    EENTRO =         0.01848398
  eigenvalues    EBANDS =      -604.56324209
  atomic energy  EATOM  =      5110.57042958
  ---------------------------------------------------
  free energy    TOTEN  =       -99.03532431 eV

  energy without entropy =      -99.05380829  energy(sigma->0) =      -99.04148564


--------------------------------------------------------------------------------------------------------




----------------------------------------- Iteration    1(  14)  ---------------------------------------


    POTLOK:  cpu time    0.03: real time    0.03
    SETDIJ:  cpu time    0.00: real time    0.01
     EDDAV:  cpu time    6.82: real time    6.82
       DOS:  cpu time    0.00: real time    0.00
    CHARGE:  cpu time    0.33: real time    0.33
    MIXING:  cpu time    0.00: real time    0.00
    --------------------------------------------
      LOOP:  cpu time    7.19: real time    7.26

 eigenvalue-minimisations  : 21728
 total energy-change (2. order) : 0.2811003E-03  (-0.1174571E-03)
 number of electron      75.9999938 magnetization       0.0000000
 augmentation part       17.3057170 magnetization       0.0000000

 Broyden mixing:
  rms(total) = 0.12427E-01    rms(broyden)= 0.12427E-01
  rms(prec ) = 0.14682E-01
  weight for this iteration     100.00

 eigenvalues of (default mixing * dielectric matrix)
  average eigenvalue GAMMA=   1.0679
  2.3261  1.8623  1.1855  1.1855  0.2580  0.8566  0.6674  0.6674  0.6025

 Free energy of the ion-electron system (eV)
  ---------------------------------------------------
  alpha Z        PSCENC =       180.83915956
  Ewald energy   TEWEN  =      -935.11960250
  -1/2 Hartree   DENC   =     -4080.70440977
  -exchange  EXHF       =         0.00000000
  -V(xc)+E(xc)   XCENC  =       187.80813095
  PAW double counting   =      6132.17958298    -6091.08328448
  entropy T*S    EENTRO =         0.01849352
  eigenvalues    EBANDS =      -603.54354306
  atomic energy  EATOM  =      5110.57042958
  ---------------------------------------------------
  free energy    TOTEN  =       -99.03504321 eV

  energy without entropy =      -99.05353673  energy(sigma->0) =      -99.04120772


--------------------------------------------------------------------------------------------------------




----------------------------------------- Iteration    1(  15)  ---------------------------------------


    POTLOK:  cpu time    0.03: real time    0.03
    SETDIJ:  cpu time    0.01: real time    0.01
     EDDAV:  cpu time    5.14: real time    5.14
       DOS:  cpu time    0.01: real time    0.00
    --------------------------------------------
      LOOP:  cpu time    5.18: real time    5.39

 eigenvalue-minimisations  : 14640
 total energy-change (2. order) : 0.7514102E-04  (-0.4312631E-04)
 number of electron      75.9999938 magnetization       0.0000000
 augmentation part       17.3057170 magnetization       0.0000000

 Free energy of the ion-electron system (eV)
  ---------------------------------------------------
  alpha Z        PSCENC =       180.83915956
  Ewald energy   TEWEN  =      -935.11960250
  -1/2 Hartree   DENC   =     -4081.36931909
  -exchange  EXHF       =         0.00000000
  -V(xc)+E(xc)   XCENC  =       187.82811353
  PAW double counting   =      6129.69944057    -6088.59790962
  entropy T*S    EENTRO =         0.01845630
  eigenvalues    EBANDS =      -602.90373640
  atomic energy  EATOM  =      5110.57042958
  ---------------------------------------------------
  free energy    TOTEN  =       -99.03496807 eV

  energy without entropy =      -99.05342437  energy(sigma->0) =      -99.04112017


--------------------------------------------------------------------------------------------------------




 average (electrostatic) potential at core
  the test charge radii are     1.0210  0.7215
  (the norm of the test charge is              1.0000)
       1 -52.0613       2 -52.0612       3 -52.0613       4 -52.0612       5 -76.5608
       6 -76.5608       7 -76.5608       8 -76.5608       9 -76.5608      10 -76.5608
      11 -76.5608      12 -76.5608
 
 
 
 E-fermi :  -2.0857     XC(G=0):  -7.6385     alpha+bet : -6.0608


 spin component 1

 k-point   1 :       0.0000    0.0000    0.0000
  band No.  band energies     occupation 
      1     -20.5737      1.00000
      2     -19.2297      1.00000
      3     -19.1989      1.00000
      4     -19.1688      1.00000
      5     -19.1275      1.00000
      6     -19.0387      1.00000
      7     -19.0117      1.00000
      8     -18.7768      1.00000
      9      -7.9414      1.00000
     10      -7.8278      1.00000
     11      -7.6960      1.00000
     12      -6.9202      1.00000
     13      -6.8701      1.00000
     14      -6.6593      1.00000
     15      -6.2338      1.00000
     16      -6.0947      1.00000
     17      -6.0641      1.00000
     18      -5.9640      1.00000
     19      -5.9097      1.00000
     20      -5.8435      1.00000
     21      -5.2779      1.00000
     22      -5.0749      1.00000
     23      -5.0475      1.00000
     24      -4.3835      1.00000
     25      -4.3721      1.00000
     26      -4.0359      1.00000
     27      -3.6644      1.00000
     28      -3.5900      1.00000
     29      -3.5705      1.00000
     30      -3.5623      1.00000
     31      -3.4137      1.00000
     32      -3.4029      1.00000
     33      -3.2599      1.00000
     34      -3.0470      1.00000
     35      -3.0223      1.00000
     36      -2.8728      1.00000
     37      -2.8061      1.00000
     38      -2.7640      1.00001
     39      -1.0618     -0.00000
     40      -0.8965     -0.00000
     41      -0.5209     -0.00000
     42      -0.3737     -0.00000
     43      -0.2146     -0.00000
     44      -0.0151     -0.00000
     45       0.5069     -0.00000
     46       0.5948     -0.00000
     47       0.7770     -0.00000
     48       1.0166     -0.00000

 k-point   2 :       0.1667    0.0000   -0.0000
  band No.  band energies     occupation 
      1     -20.4932      1.00000
      2     -19.2962      1.00000
      3     -19.2647      1.00000
      4     -19.2275      1.00000
      5     -19.0828      1.00000
      6     -19.0013      1.00000
      7     -18.9939      1.00000
      8     -18.7904      1.00000
      9      -7.7865      1.00000
     10      -7.6894      1.00000
     11      -7.5242      1.00000
     12      -6.8704      1.00000
     13      -6.8233      1.00000
     14      -6.6617      1.00000
     15      -6.4508      1.00000
     16      -6.3781      1.00000
     17      -6.1513      1.00000
     18      -6.0754      1.00000
     19      -5.6710      1.00000
     20      -5.6527      1.00000
     21      -5.3074      1.00000
     22      -5.0391      1.00000
     23      -4.9687      1.00000
     24      -4.6456      1.00000
     25      -4.5167      1.00000
     26      -4.2920      1.00000
     27      -3.8228      1.00000
     28      -3.7698      1.00000
     29      -3.7068      1.00000
     30      -3.5483      1.00000
     31      -3.5314      1.00000
     32      -3.1283      1.00000
     33      -3.1148      1.00000
     34      -3.0733      1.00000
     35      -2.9597      1.00000
     36      -2.7667      1.00001
     37      -2.7036      1.00006
     38      -2.6321      1.00039
     39      -0.9709     -0.00000
     40      -0.8238     -0.00000
     41      -0.4111     -0.00000
     42      -0.3302     -0.00000
     43      -0.1651     -0.00000
     44      -0.0236     -0.00000
     45       0.4494     -0.00000
     46       0.5405     -0.00000
     47       0.6854     -0.00000
     48       0.8733     -0.00000

 k-point   3 :       0.3333    0.0000    0.0000
  band No.  band energies     occupation 
      1     -20.2666      1.00000
      2     -19.5841      1.00000
      3     -19.3025      1.00000
      4     -19.2769      1.00000
      5     -19.0202      1.00000
      6     -18.9731      1.00000
      7     -18.9450      1.00000
      8     -18.8286      1.00000
      9      -7.4047      1.00000
     10      -7.3282      1.00000
     11      -7.1157      1.00000
     12      -6.9321      1.00000
     13      -6.7329      1.00000
     14      -6.6931      1.00000
     15      -6.5673      1.00000
     16      -6.4969      1.00000
     17      -6.2976      1.00000
     18      -6.1446      1.00000
     19      -5.6446      1.00000
     20      -5.6227      1.00000
     21      -5.4501      1.00000
     22      -5.0543      1.00000
     23      -5.0103      1.00000
     24      -5.0002      1.00000
     25      -4.8513      1.00000
     26      -4.5506      1.00000
     27      -4.4759      1.00000
     28      -4.0502      1.00000
     29      -3.6952      1.00000
     30      -3.6034      1.00000
     31      -3.3550      1.00000
     32      -3.1877      1.00000
     33      -2.9229      1.00000
     34      -2.8281      1.00000
     35      -2.6893      1.00008
     36      -2.5527      1.00235
     37      -2.5038      1.00591
     38      -2.4599      1.01185
     39      -0.8594     -0.00000
     40      -0.7527     -0.00000
     41      -0.1930     -0.00000
     42      -0.1593     -0.00000
     43      -0.0647     -0.00000
     44      -0.0130     -0.00000
     45       0.3021     -0.00000
     46       0.3861     -0.00000
     47       0.4921     -0.00000
     48       0.5697     -0.00000

 k-point   4 :       0.5000    0.0000   -0.0000
  band No.  band energies     occupation 
      1     -19.9388      1.00000
      2     -19.9388      1.00000
      3     -19.3073      1.00000
      4     -19.3073      1.00000
      5     -18.9801      1.00000
      6     -18.9801      1.00000
      7     -18.8840      1.00000
      8     -18.8840      1.00000
      9      -7.0203      1.00000
     10      -7.0203      1.00000
     11      -6.9647      1.00000
     12      -6.9647      1.00000
     13      -6.9029      1.00000
     14      -6.9029      1.00000
     15      -6.3288      1.00000
     16      -6.3288      1.00000
     17      -6.2109      1.00000
     18      -6.2109      1.00000
     19      -5.8284      1.00000
     20      -5.8284      1.00000
     21      -5.4511      1.00000
     22      -5.4511      1.00000
     23      -5.0860      1.00000
     24      -5.0860      1.00000
     25      -4.8851      1.00000
     26      -4.8851      1.00000
     27      -4.3639      1.00000
     28      -4.3639      1.00000
     29      -3.6280      1.00000
     30      -3.6280      1.00000
     31      -3.2217      1.00000
     32      -3.2217      1.00000
     33      -2.7528      1.00001
     34      -2.7528      1.00001
     35      -2.5268      1.00389
     36      -2.5268      1.00389
     37      -2.3856      1.02769
     38      -2.3856      1.02769
     39      -0.8010     -0.00000
     40      -0.8010     -0.00000
     41      -0.0472     -0.00000
     42      -0.0472     -0.00000
     43       0.0874     -0.00000
     44       0.0874     -0.00000
     45       0.1454     -0.00000
     46       0.1454     -0.00000
     47       0.4084     -0.00000
     48       0.4084     -0.00000

 k-point   5 :       0.0000    0.1667    0.0000
  band No.  band energies     occupation 
      1     -20.4943      1.00000
      2     -19.3163      1.00000
      3     -19.2633      1.00000
      4     -19.2047      1.00000
      5     -19.0853      1.00000
      6     -19.0133      1.00000
      7     -18.9830      1.00000
      8     -18.7891      1.00000
      9      -7.8099      1.00000
     10      -7.6557      1.00000
     11      -7.5635      1.00000
     12      -6.8506      1.00000
     13      -6.8142      1.00000
     14      -6.7190      1.00000
     15      -6.5102      1.00000
     16      -6.2377      1.00000
     17      -6.1214      1.00000
     18      -6.0291      1.00000
     19      -5.7393      1.00000
     20      -5.6625      1.00000
     21      -5.2993      1.00000
     22      -5.0285      1.00000
     23      -4.9861      1.00000
     24      -4.6294      1.00000
     25      -4.5197      1.00000
     26      -4.3225      1.00000
     27      -3.8160      1.00000
     28      -3.7223      1.00000
     29      -3.6730      1.00000
     30      -3.5812      1.00000
     31      -3.4448      1.00000
     32      -3.3921      1.00000
     33      -3.1404      1.00000
     34      -3.0080      1.00000
     35      -2.9852      1.00000
     36      -2.8964      1.00000
     37      -2.6079      1.00070
     38      -2.5114      1.00516
     39      -0.9343     -0.00000
     40      -0.7509     -0.00000
     41      -0.5272     -0.00000
     42      -0.2746     -0.00000
     43      -0.2207     -0.00000
     44       0.0093     -0.00000
     45       0.4269     -0.00000
     46       0.4951     -0.00000
     47       0.6745     -0.00000
     48       0.9280     -0.00000

 k-point   6 :       0.1667    0.1667   -0.0000
  band No.  band energies     occupation 
      1     -20.3324      1.00000
      2     -19.4405      1.00000
      3     -19.4247      1.00000
      4     -19.1325      1.00000
      5     -19.1226      1.00000
      6     -18.9661      1.00000
      7     -18.9518      1.00000
      8     -18.8160      1.00000
      9      -7.5475      1.00000
     10      -7.3943      1.00000
     11      -7.2699      1.00000
     12      -6.8769      1.00000
     13      -6.7072      1.00000
     14      -6.6722      1.00000
     15      -6.6075      1.00000
     16      -6.4373      1.00000
     17      -6.3817      1.00000
     18      -5.8896      1.00000
     19      -5.8065      1.00000
     20      -5.5107      1.00000
     21      -5.3042      1.00000
     22      -5.1447      1.00000
     23      -5.0739      1.00000
     24      -4.7930      1.00000
     25      -4.7547      1.00000
     26      -4.6040      1.00000
     27      -4.1671      1.00000
     28      -4.1346      1.00000
     29      -3.9185      1.00000
     30      -3.4312      1.00000
     31      -3.3612      1.00000
     32      -3.1312      1.00000
     33      -3.0041      1.00000
     34      -2.9543      1.00000
     35      -2.9080      1.00000
     36      -2.7010      1.00006
     37      -2.4450      1.01458
     38      -2.3558      1.03342
     39      -0.7864     -0.00000
     40      -0.6302     -0.00000
     41      -0.4118     -0.00000
     42      -0.1782     -0.00000
     43      -0.1301     -0.00000
     44      -0.0118     -0.00000
     45       0.2895     -0.00000
     46       0.3857     -0.00000
     47       0.5082     -0.00000
     48       0.7086     -0.00000

 k-point   7 :       0.3333    0.1667   -0.0000
  band No.  band energies     occupation 
      1     -20.0479      1.00000
      2     -19.7470      1.00000
      3     -19.5268      1.00000
      4     -19.1502      1.00000
      5     -19.0300      1.00000
      6     -18.9389      1.00000
      7     -18.9137      1.00000
      8     -18.8650      1.00000
      9      -7.1829      1.00000
     10      -7.0888      1.00000
     11      -6.9379      1.00000
     12      -6.9230      1.00000
     13      -6.8731      1.00000
     14      -6.7029      1.00000
     15      -6.3914      1.00000
     16      -6.3730      1.00000
     17      -6.3435      1.00000
     18      -6.0450      1.00000
     19      -5.9126      1.00000
     20      -5.7556      1.00000
     21      -5.4314      1.00000
     22      -5.3697      1.00000
     23      -5.0202      1.00000
     24      -5.0016      1.00000
     25      -4.9378      1.00000
     26      -4.7467      1.00000
     27      -4.6003      1.00000
     28      -4.4123      1.00000
     29      -4.0330      1.00000
     30      -3.2529      1.00000
     31      -3.1758      1.00000
     32      -3.1026      1.00000
     33      -2.9515      1.00000
     34      -2.7343      1.00002
     35      -2.7340      1.00002
     36      -2.4839      1.00823
     37      -2.3803      1.02885
     38      -2.3029      1.03189
     39      -0.6797     -0.00000
     40      -0.6003     -0.00000
     41      -0.1897     -0.00000
     42      -0.0624     -0.00000
     43       0.0331     -0.00000
     44       0.0589     -0.00000
     45       0.0811     -0.00000
     46       0.1703     -0.00000
     47       0.3822     -0.00000
     48       0.4593     -0.00000

 k-point   8 :       0.5000    0.1667   -0.0000
  band No.  band energies     occupation 
      1     -20.0857      1.00000
      2     -19.7008      1.00000
      3     -19.5501      1.00000
      4     -19.1509      1.00000
      5     -18.9922      1.00000
      6     -18.9509      1.00000
      7     -18.9263      1.00000
      8     -18.8589      1.00000
      9      -7.1243      1.00000
     10      -7.0965      1.00000
     11      -7.0082      1.00000
     12      -6.9749      1.00000
     13      -6.8233      1.00000
     14      -6.7463      1.00000
     15      -6.4461      1.00000
     16      -6.3352      1.00000
     17      -6.3244      1.00000
     18      -6.1157      1.00000
     19      -5.9047      1.00000
     20      -5.7485      1.00000
     21      -5.6301      1.00000
     22      -5.0678      1.00000
     23      -5.0597      1.00000
     24      -4.9928      1.00000
     25      -4.9111      1.00000
     26      -4.7723      1.00000
     27      -4.5118      1.00000
     28      -4.4059      1.00000
     29      -3.9845      1.00000
     30      -3.3174      1.00000
     31      -3.2342      1.00000
     32      -3.1093      1.00000
     33      -2.8141      1.00000
     34      -2.8063      1.00000
     35      -2.6088      1.00068
     36      -2.5007      1.00623
     37      -2.4672      1.01065
     38      -2.3835      1.02814
     39      -0.6500     -0.00000
     40      -0.6053     -0.00000
     41      -0.1822     -0.00000
     42      -0.1536     -0.00000
     43      -0.0548     -0.00000
     44      -0.0160     -0.00000
     45       0.2315     -0.00000
     46       0.2876     -0.00000
     47       0.4344     -0.00000
     48       0.4439     -0.00000

 k-point   9 :      -0.3333    0.1667    0.0000
[...]
     17      -6.1826      1.00000
     18      -5.7926      1.00000
     19      -5.7654      1.00000
     20      -5.7196      1.00000
     21      -5.3213      1.00000
     22      -5.1150      1.00000
     23      -4.9225      1.00000
     24      -4.7647      1.00000
     25      -4.6355      1.00000
     26      -4.4925      1.00000
     27      -4.4355      1.00000
     28      -4.0582      1.00000
     29      -3.7857      1.00000
     30      -2.9016      1.00000
     31      -2.6996      1.00000
     32      -2.5888      1.00000
     33      -2.4132      1.00000
     34      -2.3353      1.00000
     35      -2.2115      1.00000
     36      -2.1330      1.00000
     37      -1.6614      1.03435
     38      -1.5463      0.90557
     39       0.0515     -0.00000
     40       0.0898     -0.00000
     41       0.2645     -0.00000
     42       0.4233     -0.00000
     43       0.6250     -0.00000
     44       0.6800     -0.00000
     45       0.9316     -0.00000
     46       1.0042     -0.00000
     47       1.0398     -0.00000
     48       1.3761     -0.00000

 k-point  75 :       0.3333    0.5000    0.5000
  band No.  band energies     occupation 
      1     -20.1383      1.00000
      2     -19.7506      1.00000
      3     -19.4461      1.00000
      4     -18.9993      1.00000
      5     -18.9217      1.00000
      6     -18.8315      1.00000
      7     -18.7669      1.00000
      8     -18.6869      1.00000
      9      -7.2680      1.00000
     10      -7.1694      1.00000
     11      -7.0167      1.00000
     12      -6.9799      1.00000
     13      -6.8727      1.00000
     14      -6.6702      1.00000
     15      -6.3949      1.00000
     16      -6.3275      1.00000
     17      -6.2713      1.00000
     18      -5.9664      1.00000
     19      -5.7826      1.00000
     20      -5.6192      1.00000
     21      -5.2752      1.00000
     22      -5.0944      1.00000
     23      -4.8464      1.00000
     24      -4.7335      1.00000
     25      -4.7080      1.00000
     26      -4.5223      1.00000
     27      -4.3358      1.00000
     28      -4.0668      1.00000
     29      -3.7891      1.00000
     30      -2.9480      1.00000
     31      -2.6929      1.00000
     32      -2.5321      1.00000
     33      -2.4050      1.00000
     34      -2.3139      1.00000
     35      -2.1684      1.00000
     36      -1.8960      1.00252
     37      -1.8158      1.01037
     38      -1.7445      1.02491
     39      -0.0845     -0.00000
     40      -0.0115     -0.00000
     41       0.3491     -0.00000
     42       0.5114     -0.00000
     43       0.5755     -0.00000
     44       0.6730     -0.00000
     45       1.0525     -0.00000
     46       1.0573     -0.00000
     47       1.1766     -0.00000
     48       1.2367     -0.00000

 k-point  76 :       0.5000    0.5000    0.5000
  band No.  band energies     occupation 
      1     -19.9995      1.00000
      2     -19.9995      1.00000
      3     -19.1695      1.00000
      4     -19.1695      1.00000
      5     -18.8859      1.00000
      6     -18.8859      1.00000
      7     -18.7160      1.00000
      8     -18.7160      1.00000
      9      -7.1197      1.00000
     10      -7.1197      1.00000
     11      -6.9820      1.00000
     12      -6.9820      1.00000
     13      -6.9427      1.00000
     14      -6.9427      1.00000
     15      -6.2976      1.00000
     16      -6.2976      1.00000
     17      -6.1400      1.00000
     18      -6.1400      1.00000
     19      -5.6657      1.00000
     20      -5.6657      1.00000
     21      -5.2426      1.00000
     22      -5.2426      1.00000
     23      -4.9136      1.00000
     24      -4.9136      1.00000
     25      -4.6527      1.00000
     26      -4.6527      1.00000
     27      -4.0014      1.00000
     28      -4.0014      1.00000
     29      -3.3617      1.00000
     30      -3.3617      1.00000
     31      -2.6724      1.00000
     32      -2.6724      1.00000
     33      -2.2527      1.00000
     34      -2.2527      1.00000
     35      -2.0103      1.00017
     36      -2.0103      1.00017
     37      -1.8218      1.00946
     38      -1.8218      1.00946
     39      -0.2070     -0.00000
     40      -0.2070     -0.00000
     41       0.5332     -0.00000
     42       0.5332     -0.00000
     43       0.5896     -0.00000
     44       0.5896     -0.00000
     45       1.1120     -0.00000
     46       1.1120     -0.00000
     47       1.2135     -0.00000
     48       1.2135     -0.00000


--------------------------------------------------------------------------------------------------------


 soft charge-density along one line, spin component           1
         0         1         2         3         4         5         6         7         8         9
 total charge-density along one line
 
 soft charge-density along one line, spin component           2
         0         1         2         3         4         5         6         7         8         9
 total charge-density along one line
 
 pseudopotential strength for first ion, spin component:           1
-10.970  -0.007   0.001  -0.120  -0.001 -11.446  -0.007   0.001
 -0.007 -10.867  -0.006   0.001  -0.112  -0.007 -11.344  -0.006
  0.001  -0.006 -10.974  -0.001   0.003   0.001  -0.006 -11.449
 -0.120   0.001  -0.001 -10.865   0.008  -0.118   0.001  -0.001
 -0.001  -0.112   0.003   0.008 -10.977  -0.001  -0.110   0.003
-11.446  -0.007   0.001  -0.118  -0.001 -11.897  -0.006   0.001
 -0.007 -11.344  -0.006   0.001  -0.110  -0.006 -11.797  -0.006
  0.001  -0.006 -11.449  -0.001   0.003   0.001  -0.006 -11.900
 -0.118   0.001  -0.001 -11.342   0.008  -0.115   0.001  -0.001
 -0.001  -0.110   0.003   0.008 -11.452  -0.001  -0.108   0.003
 -0.000   0.003  -0.008  -0.000  -0.001  -0.000   0.003  -0.008
 -0.000   0.006  -0.015  -0.000  -0.001  -0.000   0.006  -0.016
  0.000   0.000   0.000  -0.000   0.000   0.000   0.000   0.000
 -0.000  -0.000   0.000   0.000   0.000  -0.000  -0.000   0.000
  0.000  -0.000  -0.000   0.000   0.000   0.000  -0.000  -0.000
  0.000   0.000   0.000  -0.000   0.000   0.000   0.000   0.000
 -0.000  -0.000   0.000   0.000   0.000  -0.000  -0.000   0.000
  0.000  -0.000  -0.000   0.000   0.000   0.000  -0.000  -0.000
 pseudopotential strength for first ion, spin component:           2
 -9.280   0.015  -0.002   0.262   0.003  -9.784   0.015  -0.002
  0.015  -9.291   0.009  -0.003   0.234   0.015  -9.796   0.009
 -0.002   0.009  -9.008   0.002   0.008  -0.002   0.009  -9.516
  0.262  -0.003   0.002  -9.307  -0.016   0.259  -0.003   0.002
  0.003   0.234   0.008  -0.016  -9.263   0.003   0.231   0.008
 -9.784   0.015  -0.002   0.259   0.003 -10.265   0.015  -0.002
  0.015  -9.796   0.009  -0.003   0.231   0.015 -10.276   0.009
 -0.002   0.009  -9.516   0.002   0.008  -0.002   0.009 -10.000
  0.259  -0.003   0.002  -9.811  -0.016   0.256  -0.003   0.002
  0.003   0.231   0.008  -0.016  -9.768   0.003   0.228   0.008
  0.000  -0.007  -0.022  -0.000   0.003   0.000  -0.007  -0.023
  0.000  -0.014  -0.044  -0.000   0.006   0.000  -0.014  -0.045
  0.000   0.000   0.000  -0.000   0.000   0.000   0.000   0.000
 -0.000  -0.000   0.000   0.000   0.000  -0.000  -0.000   0.000
  0.000  -0.000  -0.000   0.000   0.000   0.000  -0.000  -0.000
  0.000   0.000   0.000  -0.000   0.000   0.000   0.000   0.000
 -0.000  -0.000   0.000   0.000   0.000  -0.000  -0.000   0.000
  0.000  -0.000  -0.000   0.000   0.000   0.000  -0.000  -0.000
 total augmentation occupancy for first ion, spin component:           1
  6.849   0.102  -0.009   1.930   0.026  -5.948  -0.014  -0.003  -0.431  -0.009   0.001   0.001   0.000  -0.000   0.000   0.000
  0.102   5.578   0.047  -0.017   1.655  -0.015  -5.101  -0.043   0.003  -0.241  -0.013   0.000  -0.000   0.000   0.000  -0.000
 -0.009   0.047   7.687   0.016   0.197  -0.003  -0.042  -5.495  -0.001  -0.159   1.002  -0.164   0.000   0.000   0.000   0.000
  1.930  -0.017   0.016   5.637  -0.120  -0.454   0.003  -0.001  -5.141   0.027   0.009  -0.001   0.000  -0.000   0.000   0.000
  0.026   1.655   0.197  -0.120   7.047  -0.009  -0.219  -0.158   0.026  -6.088   0.043   0.009  -0.000   0.000   0.000   0.000
 -5.948  -0.015  -0.003  -0.454  -0.009   6.115  -0.061   0.013  -0.837  -0.006  -0.001  -0.000   0.000   0.000  -0.000   0.000
 -0.014  -5.101  -0.042   0.003  -0.219  -0.061   5.628   0.029   0.010  -0.999   0.021  -0.002   0.000  -0.000   0.000   0.000
 -0.003  -0.043  -5.495  -0.001  -0.158   0.013   0.029   4.548  -0.012   0.125  -1.016   0.171   0.000   0.000  -0.000   0.000
 -0.431   0.003  -0.001  -5.141   0.026  -0.837   0.010  -0.012   5.654   0.054  -0.010   0.002   0.000   0.000   0.000   0.000
 -0.009  -0.241  -0.159   0.027  -6.088  -0.006  -0.999   0.125   0.054   6.221  -0.041  -0.005   0.000   0.000   0.000  -0.000
  0.001  -0.013   1.002   0.009   0.043  -0.001   0.021  -1.016  -0.010  -0.041   2.857  -0.450   0.000   0.000   0.000   0.000
  0.001   0.000  -0.164  -0.001   0.009  -0.000  -0.002   0.171   0.002  -0.005  -0.450   0.097   0.000  -0.000   0.000   0.000
  0.000  -0.000   0.000   0.000  -0.000   0.000   0.000   0.000   0.000   0.000   0.000   0.000   0.406   0.001  -0.000  -0.033
 -0.000   0.000   0.000  -0.000   0.000   0.000  -0.000  -0.000   0.000   0.000   0.000  -0.000   0.001   0.326  -0.000   0.000
  0.000   0.000   0.000  -0.000   0.000  -0.000   0.000  -0.000   0.000   0.000   0.000   0.000  -0.000  -0.000   0.403   0.000
  0.000  -0.000   0.000   0.000   0.000   0.000   0.000   0.000   0.000  -0.000  -0.000   0.000  -0.033   0.000   0.000   0.003
  0.000  -0.000   0.000  -0.000  -0.000   0.000  -0.000  -0.000   0.000   0.000   0.000   0.000   0.000  -0.026   0.000  -0.000
  0.000   0.000   0.000   0.000   0.000   0.000   0.000   0.000   0.000  -0.000  -0.000  -0.000   0.000   0.000  -0.033  -0.000
 total augmentation occupancy for first ion, spin component:           2
  3.774   0.217  -0.027   3.731   0.043  -2.094  -0.150   0.017  -2.555  -0.028   0.003   0.001   0.000   0.000   0.000   0.000
  0.217   2.418   0.057  -0.034   3.531  -0.152  -1.082  -0.032   0.023  -2.487  -0.044  -0.004   0.000   0.000   0.000  -0.000
 -0.027   0.057   6.620   0.035   0.178   0.017  -0.040  -4.034  -0.024  -0.152   0.189   0.006   0.000  -0.000  -0.000   0.000
  3.731  -0.034   0.035   2.545  -0.233  -2.592   0.023  -0.024  -1.224   0.162   0.002   0.000   0.000   0.000   0.000   0.000
  0.043   3.531   0.178  -0.233   3.917  -0.028  -2.457  -0.158   0.160  -2.143   0.081   0.013   0.000   0.000  -0.000  -0.000
 -2.094  -0.152   0.017  -2.592  -0.028   1.046   0.109  -0.011   1.849   0.018  -0.002  -0.001   0.000   0.000  -0.000  -0.000
 -0.150  -1.082  -0.040   0.023  -2.457   0.109   0.265   0.029  -0.016   1.808   0.015   0.003  -0.000   0.000   0.000   0.000
  0.017  -0.032  -4.034  -0.024  -0.158  -0.011   0.029   2.421   0.017   0.136  -0.093  -0.013   0.000   0.000  -0.000   0.000
 -2.555   0.023  -0.024  -1.224   0.160   1.849  -0.016   0.017   0.406  -0.116  -0.001  -0.000   0.000  -0.000  -0.000   0.000
 -0.028  -2.487  -0.152   0.162  -2.143   0.018   1.808   0.136  -0.116   1.028  -0.057  -0.009   0.000  -0.000   0.000  -0.000
  0.003  -0.044   0.189   0.002   0.081  -0.002   0.015  -0.093  -0.001  -0.057  -0.245   0.095   0.000   0.000  -0.000   0.000
  0.001  -0.004   0.006   0.000   0.013  -0.001   0.003  -0.013  -0.000  -0.009   0.095  -0.019   0.000   0.000   0.000   0.000
  0.000   0.000   0.000   0.000   0.000   0.000  -0.000   0.000   0.000   0.000   0.000   0.000  -0.001   0.001   0.000  -0.000
  0.000   0.000  -0.000   0.000   0.000   0.000   0.000   0.000  -0.000  -0.000   0.000   0.000   0.001   0.014  -0.000  -0.000
  0.000   0.000  -0.000   0.000  -0.000  -0.000   0.000   0.000  -0.000   0.000  -0.000   0.000   0.000  -0.000   0.016  -0.000
  0.000  -0.000   0.000   0.000   0.000  -0.000   0.000   0.000   0.000  -0.000   0.000   0.000  -0.000  -0.000  -0.000  -0.000
  0.000  -0.000  -0.000   0.000   0.000   0.000   0.000   0.000   0.000  -0.000   0.000   0.000  -0.000  -0.001  -0.000   0.000
 -0.000   0.000   0.000   0.000  -0.000   0.000   0.000   0.000   0.000   0.000  -0.000   0.000  -0.000  -0.000  -0.000  -0.000


------------------------ aborting loop because EDIFF is reached ----------------------------------------


    CHARGE:  cpu time    0.33: real time    0.33
    FORLOC:  cpu time    0.00: real time    0.00
    FORNL :  cpu time    1.17: real time    1.17
    STRESS:  cpu time    1.54: real time    1.54
    FORCOR:  cpu time    0.03: real time    0.03
    FORHAR:  cpu time    0.00: real time    0.00
    MIXING:  cpu time    0.00: real time    0.00

  FORCE on cell =-STRESS in cart. coord.  units (eV):
  Direction    XX          YY          ZZ          XY          YZ          ZX
  --------------------------------------------------------------------------------------
  Alpha Z   194.64267   194.64267   194.64267
  Ewald    2415.56248  2419.95436 -5658.56743    -0.17777   -12.34773   -42.19188
  Hartree  3590.85480  3592.78927 -2959.70028    -0.08027   -10.20954   -34.15443
  E(xc)    -369.40011  -369.45121  -368.76315     0.00084    -0.01505     0.00425
  Local   -7039.55026 -7046.72275  7530.58903     0.29615    20.89264    76.06766
  n-local  -256.74707  -257.33203  -267.18934    -0.01413    -0.21504    -0.04942
  augment   170.40149   170.81087   177.01399    -0.00696     0.32671     0.02768
  Kinetic  1294.44138  1295.32087  1351.81294     0.00428     1.60516     0.28360
  Fock        0.00000     0.00000     0.00000     0.00000     0.00000     0.00000
  -------------------------------------------------------------------------------------
  Total       0.20537     0.01205    -0.16157     0.02214     0.03717    -0.01253
  in kB       1.68293     0.09877    -1.32401     0.18145     0.30455    -0.10269
  external pressure =        0.15 kB  Pullay stress =        0.00 kB


 VOLUME and BASIS-vectors are now :
 -----------------------------------------------------------------------------
  energy-cutoff  :      520.00
  volume of cell :      195.52
      direct lattice vectors                 reciprocal lattice vectors
     5.670182616  0.116872916 -0.029711124     0.174321979  0.105492621  0.025804607
    -2.937302322  4.852095914  0.006821993    -0.004304980  0.203519938 -0.021004093
    -1.460049503  0.694170796  7.025444003     0.000741401  0.000248510  0.142469284

  length of vectors
     5.671464796  5.671915569  7.209055492     0.205384330  0.204646207  0.142471429


 FORCES acting on ions
    electron-ion (+dipol)            ewald-force                    non-local-force                 convergence-correction
 -----------------------------------------------------------------------------------------------
   0.178E-06 -.825E-07 0.532E-06   -.176E-05 0.809E-06 -.534E-05   0.430E-23 0.160E-22 0.361E-22   -.235E-09 -.982E-10 0.304E-08
   0.178E-06 -.825E-07 0.532E-06   -.176E-05 0.809E-06 -.534E-05   0.358E-22 -.714E-23 0.111E-21   -.235E-09 -.976E-10 0.304E-08
   0.178E-06 -.825E-07 0.532E-06   -.176E-05 0.809E-06 -.534E-05   0.430E-22 0.190E-23 -.138E-21   -.234E-09 -.975E-10 0.304E-08
   0.178E-06 -.825E-07 0.532E-06   -.176E-05 0.809E-06 -.534E-05   -.220E-22 -.217E-22 -.339E-22   -.234E-09 -.967E-10 0.304E-08
   -.240E+01 -.927E+00 -.464E+03   0.253E+01 0.108E+01 0.490E+03   -.125E+00 -.153E+00 -.258E+02   -.813E-04 0.666E-04 -.149E-01
   0.240E+01 0.927E+00 0.464E+03   -.253E+01 -.108E+01 -.490E+03   0.125E+00 0.153E+00 0.258E+02   0.813E-04 -.666E-04 0.149E-01
   -.240E+01 -.926E+00 -.464E+03   0.253E+01 0.108E+01 0.490E+03   -.125E+00 -.153E+00 -.258E+02   -.813E-04 0.666E-04 -.149E-01
   0.240E+01 0.926E+00 0.464E+03   -.253E+01 -.108E+01 -.490E+03   0.125E+00 0.153E+00 0.258E+02   0.813E-04 -.666E-04 0.149E-01
   -.240E+01 -.927E+00 -.464E+03   0.253E+01 0.108E+01 0.490E+03   -.125E+00 -.153E+00 -.258E+02   -.813E-04 0.666E-04 -.149E-01
   0.240E+01 0.927E+00 0.464E+03   -.253E+01 -.108E+01 -.490E+03   0.125E+00 0.153E+00 0.258E+02   0.813E-04 -.666E-04 0.149E-01
   -.240E+01 -.926E+00 -.464E+03   0.253E+01 0.108E+01 0.490E+03   -.125E+00 -.153E+00 -.258E+02   -.813E-04 0.666E-04 -.149E-01
   0.240E+01 0.926E+00 0.464E+03   -.253E+01 -.108E+01 -.490E+03   0.125E+00 0.153E+00 0.258E+02   0.813E-04 -.666E-04 0.149E-01
 -----------------------------------------------------------------------------------------------
   0.668E-04 -.318E-04 -.403E-03   -.258E-13 0.195E-13 0.114E-12   0.111E-15 0.278E-16 0.213E-13   -.528E-08 0.158E-08 0.276E-07
 
 
 POSITION                                       TOTAL-FORCE (eV/Angst)
 -----------------------------------------------------------------------------------
     -0.00000     -0.00000     -0.00000         0.000000     -0.000000     -0.000000
     -1.46865      2.42605      0.00341         0.000000     -0.000000     -0.000000
      2.83509      0.05844     -0.01486         0.000000      0.000000     -0.000000
      1.36644      2.48448     -0.01144         0.000000     -0.000000     -0.000000
     -1.49780      4.06294      0.96033         0.000562      0.003996     -0.002380
      2.77063      1.60020      6.04223        -0.000562     -0.003996      0.002380
     -0.02915      1.63689      0.95692         0.000562      0.003996     -0.002380
      1.30198      4.02625      6.04564        -0.000562     -0.003996      0.002380
      1.33729      4.12137      0.94547         0.000562      0.003996     -0.002380
     -0.06446      1.54177      6.05708        -0.000562     -0.003996      0.002380
      2.80594      1.69533      0.94206         0.000562      0.003996     -0.002380
     -1.53311      3.96781      6.06049        -0.000562     -0.003996      0.002380
 -----------------------------------------------------------------------------------
    total drift:                                0.000067     -0.000032     -0.000403


--------------------------------------------------------------------------------------------------------



  FREE ENERGIE OF THE ION-ELECTRON SYSTEM (eV)
  ---------------------------------------------------
  free  energy   TOTEN  =       -99.81165966 eV

  energy  without entropy=      -99.82422681  energy(sigma->0) =      -99.81584871
 
 d Force = 0.1780653E-03[ 0.166E-04, 0.340E-03]  d Energy = 0.7117166E-03-0.534E-03
 d Force =-0.3323741E+01[-0.333E+01,-0.332E+01]  d Ewald  =-0.7448912E+01 0.413E+01


--------------------------------------------------------------------------------------------------------


    POTLOK:  cpu time    0.04: real time    0.04


--------------------------------------------------------------------------------------------------------




--------------------------------------------------------------------------------------------------------


  
 reached required accuracy - stopping structural energy minimisation
     LOOP+:  cpu time   32.80: real time   33.56
    4ORBIT:  cpu time    0.00: real time    0.00

 total amount of memory used by VASP on root node    86780. kBytes
========================================================================

   base      :      30000. kBytes
   nonl-proj :      31618. kBytes
   fftplans  :       1012. kBytes
   grid      :       2578. kBytes
   one-center:         93. kBytes
   wavefun   :      21479. kBytes
 
  
  
 General timing and accounting informations for this job:
 ========================================================
  
                  Total CPU time used (sec):      465.750
                            User time (sec):      464.485
                          System time (sec):        1.265
                         Elapsed time (sec):      477.864
  
                   Maximum memory used (kb):      171744.
                   Average memory used (kb):           0.
  
                          Minor page faults:        17549
                          Major page faults:            1
                 Voluntary context switches:        16199
