 vasp.5.3.3 18Dez12 (build May 12 2016 12:04:25) complex                        
  
 executed on             LinuxIFC date 2019.05.14  20:55:39
 running on   64 total cores
 distrk:  each k-point on   64 cores,    1 groups
 distr:  one band on NCORES_PER_BAND=   8 cores,    8 groups


--------------------------------------------------------------------------------------------------------


 INCAR:
 POTCAR:   PAW_PBE Mn 06Sep2000                   
 POTCAR:   PAW_PBE O_s 07Sep2000                  
 POTCAR:   PAW_PBE H 15Jun2001                    
 POTCAR:   PAW_PBE Mn 06Sep2000                   
  local pseudopotential read in
  partial core-charges read in
  atomic valenz-charges read in
  non local Contribution for L=           2  read in
    real space projection operators read in
  non local Contribution for L=           2  read in
    real space projection operators read in
  non local Contribution for L=           0  read in
    real space projection operators read in
  non local Contribution for L=           0  read in
    real space projection operators read in
  non local Contribution for L=           1  read in
    real space projection operators read in
  non local Contribution for L=           1  read in
    real space projection operators read in
    PAW grid and wavefunctions read in
 
   number of l-projection  operators is LMAX  =           6
   number of lm-projection operators is LMMAX =          18
 
 POTCAR:   PAW_PBE O_s 07Sep2000                  
  local pseudopotential read in
  atomic valenz-charges read in
  non local Contribution for L=           0  read in
    real space projection operators read in
  non local Contribution for L=           0  read in
    real space projection operators read in
  non local Contribution for L=           1  read in
    real space projection operators read in
  non local Contribution for L=           1  read in
    real space projection operators read in
    PAW grid and wavefunctions read in
 
   number of l-projection  operators is LMAX  =           4
   number of lm-projection operators is LMMAX =           8
 
 POTCAR:   PAW_PBE H 15Jun2001                    
  local pseudopotential read in
  atomic valenz-charges read in
  non local Contribution for L=           0  read in
    real space projection operators read in
  non local Contribution for L=           0  read in
    real space projection operators read in
  non local Contribution for L=           1  read in
    real space projection operators read in
    PAW grid and wavefunctions read in
 
   number of l-projection  operators is LMAX  =           3
   number of lm-projection operators is LMMAX =           5
 

 ----------------------------------------------------------------------------- 
|                                                                             |
|  ADVICE TO THIS USER RUNNING 'VASP/VAMP'   (HEAR YOUR MASTER'S VOICE ...):  |
|                                                                             |
|      You have a (more or less) 'large supercell' and for larger cells       |
|      it might be more efficient to use real space projection operators      |
|      So try LREAL= Auto  in the INCAR   file.                               |
|      Mind: If you want to do a very accurate calculations keep the          |
|      reciprocal projection scheme          (i.e. LREAL=.FALSE.)             |
|                                                                             |
 ----------------------------------------------------------------------------- 

 PAW_PBE Mn 06Sep2000                   :
 energy of atom  1       EATOM= -416.8732
 kinetic energy error for atom=    0.0155 (will be added to EATOM!!)
 PAW_PBE O_s 07Sep2000                  :
 energy of atom  2       EATOM= -432.2909
 kinetic energy error for atom=    0.0182 (will be added to EATOM!!)
 PAW_PBE H 15Jun2001                    :
 energy of atom  3       EATOM=  -12.4884
 kinetic energy error for atom=    0.0156 (will be added to EATOM!!)
 
 
 POSCAR: Mn12 O25 H  (P1) ~ CONTCAR_1 (VASP)     
  positions in direct lattice
  velocities in cartesian coordinates
  No initial velocities read in
 exchange correlation table for  LEXCH =        8
   RHO(1)=    0.500       N(1)  =     2000
   RHO(2)=  100.500       N(2)  =     4000
 


--------------------------------------------------------------------------------------------------------


 ion  position               nearest neighbor table
   1  0.308  0.513  0.120-  28 1.81  34 1.90  22 1.94  13 1.97  11 2.66   5 2.85
   2  0.692  0.020  0.369-  37 1.61  14 1.81  27 1.82  21 1.89  33 1.97  12 2.84   6 2.85
   3  0.687  0.482  0.869-  26 1.80  15 1.80  24 1.81  36 1.87   7 2.76   9 2.83
   4  0.308  0.987  0.620-  25 1.81  35 1.90  23 1.94  16 1.97  10 2.66   8 2.85
   5  0.462  0.513  0.120-  32 1.81  30 1.90  34 1.90  18 1.94  22 1.94  17 1.97   7 2.66  11 2.66
                             1 2.85   9 2.99
   6  0.538  0.013  0.380-  31 1.81  29 1.90  21 1.92  33 1.94  17 1.94  18 1.97   8 2.66  10 2.85
                             2 2.85  12 2.88
   7  0.538  0.487  0.880-  30 1.81  32 1.90  24 1.92  20 1.94  36 1.96  19 1.97   5 2.66   3 2.76
                            11 2.85   9 2.92
   8  0.462  0.987  0.620-  29 1.81  31 1.90  35 1.90  19 1.94  23 1.94  20 1.97   6 2.66  10 2.66
                             4 2.85  12 2.98
   9  0.622  0.510  0.144-  21 1.86  14 1.86  36 1.93  18 1.95  26 1.96  30 2.10   3 2.83   7 2.92
                             5 2.99
  10  0.385  0.013  0.380-  35 1.81  25 1.90  29 1.90  13 1.94  17 1.94  22 1.97   4 2.66   8 2.66
                             6 2.85
  11  0.385  0.487  0.880-  34 1.81  28 1.90  32 1.90  16 1.94  20 1.94  23 1.97   1 2.66   5 2.66
                             7 2.85
  12  0.622  0.995  0.640-  33 1.88  15 1.88  24 1.91  27 1.93  19 1.95  31 2.09   2 2.84   6 2.88
                             8 2.98
  13  0.308  0.793  0.284-  10 1.94   1 1.97
  14  0.698  0.308  0.232-   2 1.81   9 1.86
  15  0.698  0.198  0.733-   3 1.80  12 1.88
  16  0.308  0.707  0.784-  11 1.94   4 1.97
  17  0.462  0.793  0.284-   6 1.94  10 1.94   5 1.97
  18  0.538  0.293  0.216-   5 1.94   9 1.95   6 1.97
  19  0.538  0.207  0.716-   8 1.94  12 1.95   7 1.97
  20  0.462  0.707  0.784-   7 1.94  11 1.94   8 1.97
  21  0.615  0.797  0.288-   9 1.86   2 1.89   6 1.92
  22  0.385  0.293  0.216-   1 1.94   5 1.94  10 1.97
  23  0.385  0.207  0.716-   4 1.94   8 1.94  11 1.97
  24  0.616  0.700  0.788-   3 1.81  12 1.91   7 1.92
  25  0.308  0.231  0.464-   4 1.81  10 1.90
  26  0.703  0.679  0.035-   3 1.80   9 1.96
  27  0.702  0.819  0.538-   2 1.82  12 1.93
  28  0.308  0.269  0.964-   1 1.81  11 1.90
  29  0.462  0.231  0.464-   8 1.81   6 1.90  10 1.90
  30  0.538  0.731  0.036-   7 1.81   5 1.90   9 2.10
  31  0.538  0.769  0.536-   6 1.81   8 1.90  12 2.09
  32  0.462  0.269  0.964-   5 1.81   7 1.90  11 1.90
  33  0.615  0.232  0.473-  12 1.88   6 1.94   2 1.97
  34  0.385  0.731  0.036-  11 1.81   1 1.90   5 1.90
  35  0.385  0.769  0.536-  10 1.81   4 1.90   8 1.90
  36  0.617  0.269  0.973-   3 1.87   9 1.93   7 1.96
  37  0.779  0.020  0.369-  38 1.03   2 1.61
  38  0.828  0.104  0.404-  37 1.03
 
  LATTYP: Found a simple orthorhombic cell.
 ALAT       =     4.4533000000
 B/A-ratio  =     2.0934811982
 C/A-ratio  =     4.1642376507
  
  Lattice vectors:
  
 A1 = (   0.0000000000,   4.4533000000,   0.0000000000)
 A2 = (   0.0000000000,   0.0000000000,  -9.3228998200)
 A3 = ( -18.5445995300,   0.0000000000,   0.0000000000)


Analysis of symmetry for initial positions (statically):
=====================================================================
 Subroutine PRICEL returns:
 Original cell was already a primitive cell.
 

 Routine SETGRP: Setting up the symmetry group for a 
 simple orthorhombic supercell.


 Subroutine GETGRP returns: Found  1 space group operations
 (whereof  1 operations were pure point group operations)
 out of a pool of  8 trial point group operations.


The static configuration has the point symmetry C_1 .


Analysis of symmetry for dynamics (positions and initial velocities):
=====================================================================
 Subroutine PRICEL returns:
 Original cell was already a primitive cell.
 

 Routine SETGRP: Setting up the symmetry group for a 
 simple orthorhombic supercell.


 Subroutine GETGRP returns: Found  1 space group operations
 (whereof  1 operations were pure point group operations)
 out of a pool of  8 trial point group operations.


The dynamic configuration has the point symmetry C_1 .


Analysis of constrained symmetry for selective dynamics:
=====================================================================
 Subroutine PRICEL returns:
 Original cell was already a primitive cell.
 

 Routine SETGRP: Setting up the symmetry group for a 
 simple orthorhombic supercell.


 Subroutine GETGRP returns: Found  1 space group operations
 (whereof  1 operations were pure point group operations)
 out of a pool of  8 trial point group operations.


The constrained configuration has the point symmetry C_1 .


Analysis of magnetic symmetry:
=====================================================================

 Subroutine MAGSYM returns: Found  1 space group operations
 (whereof  1 operations were pure point group operations)
 out of a pool of  1 trial space group operations
 (whereof  1 operations were pure point group operations)
 and found also     1 'primitive' translations


The magnetic configuration has the point symmetry C_1 .


 irot  :   1
 --------------------------------------------------------------------
 isymop:   1   0   0
           0   1   0
           0   0   1

 gtrans:     0.0000000     0.0000000     0.0000000

 ptrans:     0.0000000     0.0000000     0.0000000
 rotmap:
 (   1->   1)  (   2->   2)  (   3->   3)  (   4->   4)  (   5->   5) 
 (   6->   6)  (   7->   7)  (   8->   8)  (   9->   9)  (  10->  10) 
 (  11->  11)  (  12->  12)  (  13->  13)  (  14->  14)  (  15->  15) 
 (  16->  16)  (  17->  17)  (  18->  18)  (  19->  19)  (  20->  20) 
 (  21->  21)  (  22->  22)  (  23->  23)  (  24->  24)  (  25->  25) 
 (  26->  26)  (  27->  27)  (  28->  28)  (  29->  29)  (  30->  30) 
 (  31->  31)  (  32->  32)  (  33->  33)  (  34->  34)  (  35->  35) 
 (  36->  36)  (  37->  37)  (  38->  38) 
 
 
 KPOINTS: Automatic mesh                          

Automatic generation of k-mesh.
Space group operators:
 irot       det(A)        alpha          n_x          n_y          n_z        tau_x        tau_y        tau_z
    1     1.000000     0.000000     1.000000     0.000000     0.000000     0.000000     0.000000     0.000000
 
 Subroutine IBZKPT returns following result:
 ===========================================
 
 Found      2 irreducible k-points:
 
 Following reciprocal coordinates:
            Coordinates               Weight
  0.000000  0.000000  0.000000      1.000000
  0.000000  0.500000  0.000000      1.000000
 
 Following cartesian coordinates:
            Coordinates               Weight
  0.000000  0.000000  0.000000      1.000000
  0.000000  0.112276  0.000000      1.000000
 


--------------------------------------------------------------------------------------------------------




 Dimension of arrays:
   k-points           NKPTS =      2   k-points in BZ     NKDIM =      2   number of bands    NBANDS=    144
   number of dos      NEDOS =    301   number of ions     NIONS =     38
   non local maximal  LDIM  =      6   non local SUM 2l+1 LMDIM =     18
   total plane-waves  NPLWV = 103680
   max r-space proj   IRMAX =      1   max aug-charges    IRDMAX=   5150
   dimension x,y,z NGX =    90 NGY =   24 NGZ =   48
   dimension x,y,z NGXF=   180 NGYF=   48 NGZF=   96
   support grid    NGXF=   180 NGYF=   48 NGZF=   96
   ions per type =              12  25   1
 NGX,Y,Z   is equivalent  to a cutoff of   8.07,  8.96,  8.56 a.u.
 NGXF,Y,Z  is equivalent  to a cutoff of  16.14, 17.92, 17.12 a.u.


 I would recommend the setting:
   dimension x,y,z NGX =    87 NGY =   21 NGZ =   44
 SYSTEM =  Mn12 O25 H  (P1) ~ CONTCAR_1 (VASP)     
 POSCAR =  Mn12 O25 H  (P1) ~ CONTCAR_1 (VASP)     

 Startparameter for this run:
   NWRITE =      1    write-flag & timer
   PREC   = normal    normal or accurate (medium, high low for compatibility)
   ISTART =      0    job   : 0-new  1-cont  2-samecut
   ICHARG =      2    charge: 1-file 2-atom 10-const
   ISPIN  =      2    spin polarized calculation?
   LNONCOLLINEAR =      F non collinear calculations
   LSORBIT =      F    spin-orbit coupling
   INIWAV =      1    electr: 0-lowe 1-rand  2-diag
   LASPH  =      F    aspherical Exc in radial PAW
   METAGGA=      F    non-selfconsistent MetaGGA calc.

 Electronic Relaxation 1
   ENCUT  =  367.7 eV  27.02 Ry    5.20 a.u.  28.99  6.96 14.58*2*pi/ulx,y,z
   ENINI  =  367.7     initial cutoff
   ENAUG  =  500.7 eV  augmentation charge cutoff
   NELM   =     60;   NELMIN=  2; NELMDL= -5     # of ELM steps 
   EDIFF  = 0.1E-03   stopping-criterion for ELM
   LREAL  =      F    real-space projection
   NLSPLINE    = F    spline interpolate recip. space projectors
   LCOMPAT=      F    compatible to vasp.4.4
   GGA_COMPAT  = T    GGA compatible to vasp.4.4-vasp.4.6
   LMAXPAW     = -100 max onsite density
   LMAXMIX     =    4 max onsite mixed and CHGCAR
   VOSKOWN=      1    Vosko Wilk Nusair interpolation
   ROPT   =    0.00000   0.00000   0.00000
 Ionic relaxation
   EDIFFG = 0.1E-02   stopping-criterion for IOM
   NSW    =    111    number of steps for IOM
   NBLOCK =      1;   KBLOCK =    111    inner block; outer block 
   IBRION =      2    ionic relax: 0-MD 1-quasi-New 2-CG
   NFREE  =      1    steps in history (QN), initial steepest desc. (CG)
   ISIF   =      2    stress and relaxation
   IWAVPR =     11    prediction:  0-non 1-charg 2-wave 3-comb
   ISYM   =      2    0-nonsym 1-usesym 2-fastsym
   LCORR  =      T    Harris-Foulkes like correction to forces

   POTIM  = 0.5000    time-step for ionic-motion
   TEIN   =    0.0    initial temperature
   TEBEG  =    0.0;   TEEND  =   0.0 temperature during run
   SMASS  =  -3.00    Nose mass-parameter (am)
   estimated Nose-frequenzy (Omega)   =  0.10E-29 period in steps =****** mass=  -0.786E-26a.u.
   SCALEE = 1.0000    scale energy and forces
   NPACO  =    256;   APACO  = 16.0  distance and # of slots for P.C.
   PSTRESS=    0.0 pullay stress

  Mass of Ions in am
   POMASS =  54.94 16.00  1.00
  Ionic Valenz
   ZVAL   =   7.00  6.00  1.00
  Atomic Wigner-Seitz radii
   RWIGS  =  -1.00 -1.00 -1.00
  virtual crystal weights 
   VCA    =   1.00  1.00  1.00
   NELECT =     235.0000    total number of electrons
   NUPDOWN=      -1.0000    fix difference up-down

 DOS related values:
   EMIN   =  10.00;   EMAX   =-10.00  energy-range for DOS
   EFERMI =   0.00
   ISMEAR =     1;   SIGMA  =   0.20  broadening in eV -4-tet -1-fermi 0-gaus

 Electronic relaxation 2 (details)
   IALGO  =     38    algorithm
   LDIAG  =      T    sub-space diagonalisation (order eigenvalues)
   LSUBROT=      T    optimize rotation matrix (better conditioning)
   TURBO    =      0    0=normal 1=particle mesh
   IRESTART =      0    0=no restart 2=restart with 2 vectors
   NREBOOT  =      0    no. of reboots
   NMIN     =      0    reboot dimension
   EREF     =   0.00    reference energy to select bands
   IMIX   =      4    mixing-type and parameters
     AMIX     =   0.40;   BMIX     =  1.00
     AMIX_MAG =   1.60;   BMIX_MAG =  1.00
     AMIN     =   0.10
     WC   =   100.;   INIMIX=   1;  MIXPRE=   1;  MAXMIX= -45

 Intra band minimization:
   WEIMIN = 0.0010     energy-eigenvalue tresh-hold
   EBREAK =  0.17E-06  absolut break condition
   DEPER  =   0.30     relativ break condition  

   TIME   =   0.40     timestep for ELM

  volume/ion in A,a.u.               =      20.26       136.73
  Fermi-wavevector in a.u.,A,eV,Ry     =   1.102251  2.082953 16.530508  1.214958
  Thomas-Fermi vector in A             =   2.238691
 
 Write flags
   LWAVE  =      F    write WAVECAR
   LCHARG =      F    write CHGCAR
   LVTOT  =      F    write LOCPOT, total local potential
   LVHAR  =      F    write LOCPOT, Hartree potential only
   LELF   =      F    write electronic localiz. function (ELF)
   LORBIT =      0    0 simple, 1 ext, 2 COOP (PROOUT)


 Dipole corrections
   LMONO  =      F    monopole corrections only (constant potential shift)
   LDIPOL =      F    correct potential (dipole corrections)
   IDIPOL =      0    1-x, 2-y, 3-z, 4-all directions 
   EPSILON=  1.0000000 bulk dielectric constant

 LDA+U is selected, type is set to LDAUTYPE =  2
   angular momentum for each species LDAUL =     2   -1   -1
   U (eV)           for each species LDAUU =   3.9  0.0  0.0
   J (eV)           for each species LDAUJ =   0.0  0.0  0.0
 Exchange correlation treatment:
   GGA     =    --    GGA type
   LEXCH   =     8    internal setting for exchange type
   VOSKOWN=      1    Vosko Wilk Nusair interpolation
   LHFCALC =     F    Hartree Fock is set to
   LHFONE  =     F    Hartree Fock one center treatment
   AEXX    =    0.0000 exact exchange contribution

 Linear response parameters
   LEPSILON=     F    determine dielectric tensor
   LRPA    =     F    only Hartree local field effects (RPA)
   LNABLA  =     F    use nabla operator in PAW spheres
   LVEL    =     F    velocity operator in full k-point grid
   LINTERFAST=   F  fast interpolation
   KINTER  =     0    interpolate to denser k-point grid
   CSHIFT  =0.1000    complex shift for real part using Kramers Kronig
   OMEGAMAX=  -1.0    maximum frequency
   DEG_THRESHOLD= 0.2000000E-02 threshold for treating states as degnerate
   RTIME   =    0.100 relaxation time in fs

 Orbital magnetization related:
   ORBITALMAG=     F  switch on orbital magnetization
   LCHIMAG   =     F  perturbation theory with respect to B field
   DQ        =  0.001000  dq finite difference perturbation B field



--------------------------------------------------------------------------------------------------------


 conjugate gradient relaxation of ions
   using selective dynamics as specified on POSCAR
 charge density and potential will be updated during run
 spin polarized calculation
 Variant of blocked Davidson
 Davidson routine will perform the subspace rotation
 perform sub-space diagonalisation
    after iterative eigenvector-optimisation
 modified Broyden-mixing scheme, WC =      100.0
 initial mixing is a Kerker type mixing with AMIX =  0.4000 and BMIX =      1.0000
 Hartree-type preconditioning will be used
 using additional bands           26
 reciprocal scheme for non local part
 use partial core corrections
 calculate Harris-corrections to forces 
   (improved forces if not selfconsistent)
 use gradient corrections 
 use of overlap-Matrix (Vanderbilt PP)
 Methfessel and Paxton  Order N= 1 SIGMA  =   0.20


--------------------------------------------------------------------------------------------------------


  energy-cutoff  :      367.69
  volume of cell :      769.93
      direct lattice vectors                 reciprocal lattice vectors
    18.544599530  0.000000000  0.000000000     0.053924055  0.000000000  0.000000000
     0.000000000  4.453300000  0.000000000     0.000000000  0.224552579  0.000000000
     0.000000000  0.000000000  9.322899820     0.000000000  0.000000000  0.107262764

  length of vectors
    18.544599530  4.453300000  9.322899820     0.053924055  0.224552579  0.107262764


 
 k-points in units of 2pi/SCALE and weight: Automatic mesh                          
   0.00000000  0.00000000  0.00000000       0.500
   0.00000000  0.11227629  0.00000000       0.500
 
 k-points in reciprocal lattice and weights: Automatic mesh                          
   0.00000000  0.00000000  0.00000000       0.500
   0.00000000  0.50000000  0.00000000       0.500
 
 position of ions in fractional coordinates (direct lattice) 
   0.30801690  0.51300001  0.12030000
   0.69213474  0.01959116  0.36879477
   0.68708128  0.48171398  0.86941564
   0.30801690  0.98699999  0.62029999
   0.46160337  0.51300001  0.12030000
   0.53839660  0.01300000  0.37970001
   0.53839660  0.48699999  0.87970001
   0.46160337  0.98699999  0.62029999
   0.62222946  0.50957328  0.14420378
   0.38481012  0.01300000  0.37970001
   0.38481012  0.48699999  0.87970001
   0.62224978  0.99492723  0.63980556
   0.30801690  0.79339999  0.28420001
   0.69848067  0.30846575  0.23222406
   0.69813371  0.19844252  0.73275548
   0.30801690  0.70660001  0.78420001
   0.46160337  0.79339999  0.28420001
   0.53839660  0.29339999  0.21580000
   0.53839660  0.20660000  0.71579999
   0.46160337  0.70660001  0.78420001
   0.61513299  0.79681462  0.28841367
   0.38481012  0.29339999  0.21580000
   0.38481012  0.20660000  0.71579999
   0.61555028  0.70021868  0.78797722
   0.30801690  0.23109999  0.46439999
   0.70254231  0.67870349  0.03478529
   0.70229155  0.81908494  0.53751391
   0.30801690  0.26890001  0.96439999
   0.46160337  0.23109999  0.46439999
   0.53839660  0.73110002  0.03560000
   0.53839660  0.76889998  0.53560001
   0.46160337  0.26890001  0.96439999
   0.61547315  0.23198310  0.47330341
   0.38481012  0.73110002  0.03560000
   0.38481012  0.76889998  0.53560001
   0.61712593  0.26917893  0.97261941
   0.77920920  0.01959116  0.36879477
   0.82779211  0.10432820  0.40368789
 
 position of ions in cartesian coordinates  (Angst):
   5.71205006  2.28454294  1.12154485
  12.83536157  0.08724531  3.43823669
  12.74164718  2.14521687  8.10547491
   5.71205006  4.39540706  5.78299467
   8.56024964  2.28454294  1.12154485
   9.98434934  0.05789290  3.53990515
   9.98434934  2.16875706  8.20135506
   8.56024964  4.39540706  5.78299467
  11.53899615  2.26928269  1.34439739
   7.13614957  0.05789290  3.53990515
   7.13614957  2.16875706  8.20135506
  11.53937298  4.43070943  5.96484314
   5.71205006  3.53324818  2.64956822
  12.95304430  1.37369052  2.16500165
  12.94661007  0.88372407  6.83140593
   5.71205006  3.14670182  7.31101813
   8.56024964  3.53324818  2.64956822
   9.98434934  1.30659818  2.01188178
   9.98434934  0.92005178  6.67333160
   8.56024964  3.14670182  7.31101813
  11.40739496  3.54845455  2.68885175
   7.13614957  1.30659818  2.01188178
   7.13614957  0.92005178  6.67333160
  11.41513343  3.11828385  7.34623268
   5.71205006  1.02915759  4.32955458
  13.02836579  3.02247025  0.32429977
  13.02371555  3.64763096  5.01118833
   5.71205006  1.19749241  8.99100449
   8.56024964  1.02915759  4.32955458
   9.98434934  3.25580772  0.33189523
   9.98434934  3.42414228  4.99334524
   8.56024964  1.19749241  8.99100449
  11.41370309  1.03309034  4.41256028
   7.13614957  3.25580772  0.33189523
   7.13614957  3.42414228  4.99334524
  11.44435323  1.19873453  9.06763332
  14.45012256  0.08724531  3.43823669
  15.35107317  0.46460477  3.76354176
 


--------------------------------------------------------------------------------------------------------


 k-point  1 :   0.0000 0.0000 0.0000  plane waves:   12281
 k-point  2 :   0.0000 0.5000 0.0000  plane waves:   12366

 maximum and minimum number of plane-waves per node :      1570     1484

 maximum number of plane-waves:     12366
 maximum index in each direction: 
   IXMAX=   28   IYMAX=    6   IZMAX=   14
   IXMIN=  -28   IYMIN=   -7   IZMIN=  -14

 WARNING: aliasing errors must be expected set NGX to 114 to avoid them
 WARNING: aliasing errors must be expected set NGY to  28 to avoid them
 WARNING: aliasing errors must be expected set NGZ to  58 to avoid them
 aliasing errors are usually negligible using standard VASP settings
 and one can safely disregard these warnings

 parallel 3D FFT for wavefunctions:
    minimum data exchange during FFTs selected (reduces bandwidth)
 parallel 3D FFT for charge:
    minimum data exchange during FFTs selected (reduces bandwidth)


 total amount of memory used by VASP on root node    37554. kBytes
========================================================================

   base      :      30000. kBytes
   nonl-proj :       2284. kBytes
   fftplans  :        902. kBytes
   grid      :       2352. kBytes
   one-center:        155. kBytes
   wavefun   :       1861. kBytes
 
 Broyden mixing: mesh for mixing (old mesh)
   NGX = 57   NGY = 13   NGZ = 29
  (NGX  =180   NGY  = 48   NGZ  = 96)
  gives a total of  21489 points

 initial charge density was supplied:
 charge density of overlapping atoms calculated
 number of electron     235.0000000 magnetization       0.0000000
 keeping initial charge density in first step


--------------------------------------------------------------------------------------------------------


 Maximum index for augmentation-charges          324 (set IRDMAX)


--------------------------------------------------------------------------------------------------------


 First call to EWALD:  gamma=   0.193
 Maximum number of real-space cells 2x 5x 3
 Maximum number of reciprocal cells 5x 2x 3

 FEWALD executed in parallel
    FEWALD:  cpu time    0.00: real time    0.00


----------------------------------------- Iteration    1(   1)  ---------------------------------------


    POTLOK:  cpu time    0.04: real time    0.04
    SETDIJ:  cpu time    0.01: real time    0.01
     EDDAV:  cpu time    0.69: real time    0.69
       DOS:  cpu time    0.00: real time    0.00
    --------------------------------------------
      LOOP:  cpu time    0.73: real time    0.81

 eigenvalue-minimisations  :  1152
 total energy-change (2. order) : 0.2832924E+04  (-0.8239055E+04)
 number of electron     235.0000000 magnetization       0.0000000
 augmentation part      235.0000000 magnetization       0.0000000

 Free energy of the ion-electron system (eV)
  ---------------------------------------------------
  alpha Z        PSCENC =       427.96691961
  Ewald energy   TEWEN  =     37415.79810658
  -1/2 Hartree   DENC   =    -52467.50676202
  -exchange  EXHF       =         0.00000000
  -V(xc)+E(xc)   XCENC  =       557.82772686
  PAW double counting   =     11200.09724383   -11040.26764092
  entropy T*S    EENTRO =        -0.00975127
  eigenvalues    EBANDS =       917.43366301
  atomic energy  EATOM  =     15821.58433428
  ---------------------------------------------------
  free energy    TOTEN  =      2832.92383996 eV

  energy without entropy =     2832.93359124  energy(sigma->0) =     2832.92709039


--------------------------------------------------------------------------------------------------------




----------------------------------------- Iteration    1(   2)  ---------------------------------------


     EDDAV:  cpu time    0.69: real time    0.69
       DOS:  cpu time    0.00: real time    0.00
    --------------------------------------------
      LOOP:  cpu time    0.69: real time    0.76

 eigenvalue-minimisations  :  1176
 total energy-change (2. order) :-0.2485869E+04  (-0.2383103E+04)
 number of electron     235.0000000 magnetization       0.0000000
 augmentation part      235.0000000 magnetization       0.0000000

 Free energy of the ion-electron system (eV)
  ---------------------------------------------------
  alpha Z        PSCENC =       427.96691961
  Ewald energy   TEWEN  =     37415.79810658
  -1/2 Hartree   DENC   =    -52467.50676202
  -exchange  EXHF       =         0.00000000
  -V(xc)+E(xc)   XCENC  =       557.82772686
  PAW double counting   =     11200.09724383   -11040.26764092
  entropy T*S    EENTRO =        -0.01449091
  eigenvalues    EBANDS =     -1568.43109354
  atomic energy  EATOM  =     15821.58433428
  ---------------------------------------------------
  free energy    TOTEN  =       347.05434378 eV

  energy without entropy =      347.06883469  energy(sigma->0) =      347.05917408


--------------------------------------------------------------------------------------------------------




----------------------------------------- Iteration    1(   3)  ---------------------------------------


     EDDAV:  cpu time    0.92: real time    0.92
       DOS:  cpu time    0.00: real time    0.00
    --------------------------------------------
      LOOP:  cpu time    0.92: real time    0.99

 eigenvalue-minimisations  :  1712
 total energy-change (2. order) :-0.6319981E+03  (-0.6108938E+03)
 number of electron     235.0000000 magnetization       0.0000000
 augmentation part      235.0000000 magnetization       0.0000000

 Free energy of the ion-electron system (eV)
  ---------------------------------------------------
  alpha Z        PSCENC =       427.96691961
  Ewald energy   TEWEN  =     37415.79810658
  -1/2 Hartree   DENC   =    -52467.50676202
  -exchange  EXHF       =         0.00000000
  -V(xc)+E(xc)   XCENC  =       557.82772686
  PAW double counting   =     11200.09724383   -11040.26764092
  entropy T*S    EENTRO =         0.00956741
  eigenvalues    EBANDS =     -2200.45320308
  atomic energy  EATOM  =     15821.58433428
  ---------------------------------------------------
  free energy    TOTEN  =      -284.94370744 eV

  energy without entropy =     -284.95327486  energy(sigma->0) =     -284.94689658


--------------------------------------------------------------------------------------------------------




----------------------------------------- Iteration    1(   4)  ---------------------------------------


     EDDAV:  cpu time    0.97: real time    0.97
       DOS:  cpu time    0.00: real time    0.00
    --------------------------------------------
      LOOP:  cpu time    0.97: real time    1.06

 eigenvalue-minimisations  :  1824
 total energy-change (2. order) :-0.6021643E+02  (-0.5892108E+02)
 number of electron     235.0000000 magnetization       0.0000000
 augmentation part      235.0000000 magnetization       0.0000000

 Free energy of the ion-electron system (eV)
  ---------------------------------------------------
  alpha Z        PSCENC =       427.96691961
  Ewald energy   TEWEN  =     37415.79810658
  -1/2 Hartree   DENC   =    -52467.50676202
  -exchange  EXHF       =         0.00000000
  -V(xc)+E(xc)   XCENC  =       557.82772686
  PAW double counting   =     11200.09724383   -11040.26764092
  entropy T*S    EENTRO =         0.05536168
  eigenvalues    EBANDS =     -2260.71542839
  atomic energy  EATOM  =     15821.58433428
  ---------------------------------------------------
  free energy    TOTEN  =      -345.16013848 eV

  energy without entropy =     -345.21550017  energy(sigma->0) =     -345.17859238


--------------------------------------------------------------------------------------------------------




----------------------------------------- Iteration    1(   5)  ---------------------------------------


     EDDAV:  cpu time    0.94: real time    0.94
       DOS:  cpu time    0.00: real time    0.00
    CHARGE:  cpu time    0.03: real time    0.03
    MIXING:  cpu time    0.00: real time    0.00
    --------------------------------------------
      LOOP:  cpu time    0.97: real time    1.04

 eigenvalue-minimisations  :  1776
 total energy-change (2. order) :-0.1720238E+01  (-0.1703241E+01)
 number of electron     235.0000091 magnetization      -0.1341608
 augmentation part       65.9524772 magnetization       0.1558966

 Broyden mixing:
  rms(total) = 0.68000E+01    rms(broyden)= 0.67924E+01
  rms(prec ) = 0.76225E+01
  weight for this iteration     100.00

 Free energy of the ion-electron system (eV)
  ---------------------------------------------------
  alpha Z        PSCENC =       427.96691961
  Ewald energy   TEWEN  =     37415.79810658
  -1/2 Hartree   DENC   =    -52467.50676202
  -exchange  EXHF       =         0.00000000
  -V(xc)+E(xc)   XCENC  =       557.82772686
  PAW double counting   =     11200.09724383   -11040.26764092
  entropy T*S    EENTRO =         0.05539395
  eigenvalues    EBANDS =     -2262.43569861
  atomic energy  EATOM  =     15821.58433428
  ---------------------------------------------------
  free energy    TOTEN  =      -346.88037643 eV

  energy without entropy =     -346.93577038  energy(sigma->0) =     -346.89884108


--------------------------------------------------------------------------------------------------------




----------------------------------------- Iteration    1(   6)  ---------------------------------------


    POTLOK:  cpu time    0.03: real time    0.04
    SETDIJ:  cpu time    0.01: real time    0.01
     EDDAV:  cpu time    1.03: real time    1.03
       DOS:  cpu time    0.00: real time    0.00
    CHARGE:  cpu time    0.03: real time    0.03
    MIXING:  cpu time    0.00: real time    0.00
    --------------------------------------------
      LOOP:  cpu time    1.11: real time    1.27

 eigenvalue-minimisations  :  1968
 total energy-change (2. order) : 0.2012314E+02  (-0.1332074E+03)
 number of electron     235.0000099 magnetization      -0.2565854
 augmentation part       82.5029024 magnetization      -0.7553193

 Broyden mixing:
  rms(total) = 0.10792E+02    rms(broyden)= 0.10788E+02
  rms(prec ) = 0.12122E+02
  weight for this iteration     100.00

 eigenvalues of (default mixing * dielectric matrix)
  average eigenvalue GAMMA=   0.3629
  0.3629

 Free energy of the ion-electron system (eV)
  ---------------------------------------------------
  alpha Z        PSCENC =       427.96691961
  Ewald energy   TEWEN  =     37415.79810658
  -1/2 Hartree   DENC   =    -52647.64267841
  -exchange  EXHF       =         0.00000000
  -V(xc)+E(xc)   XCENC  =       586.45316969
  PAW double counting   =     12158.32971543   -11986.78609161
  entropy T*S    EENTRO =         0.00550644
  eigenvalues    EBANDS =     -2102.46621960
  atomic energy  EATOM  =     15821.58433428
  ---------------------------------------------------
  free energy    TOTEN  =      -326.75723758 eV

  energy without entropy =     -326.76274402  energy(sigma->0) =     -326.75907306


--------------------------------------------------------------------------------------------------------




----------------------------------------- Iteration    1(   7)  ---------------------------------------


    POTLOK:  cpu time    0.03: real time    0.03
    SETDIJ:  cpu time    0.01: real time    0.01
     EDDAV:  cpu time    1.12: real time    1.12
       DOS:  cpu time    0.00: real time    0.00
    CHARGE:  cpu time    0.03: real time    0.03
    MIXING:  cpu time    0.00: real time    0.00
    --------------------------------------------
      LOOP:  cpu time    1.19: real time    1.27

 eigenvalue-minimisations  :  2168
 total energy-change (2. order) : 0.6894046E+02  (-0.1010622E+03)
 number of electron     235.0000086 magnetization      -0.3439538
 augmentation part       66.1867736 magnetization      -0.5881671

 Broyden mixing:
  rms(total) = 0.32042E+01    rms(broyden)= 0.31961E+01
  rms(prec ) = 0.36100E+01
  weight for this iteration     100.00

 eigenvalues of (default mixing * dielectric matrix)
  average eigenvalue GAMMA=   0.4908
  0.6921  0.2895

 Free energy of the ion-electron system (eV)
  ---------------------------------------------------
  alpha Z        PSCENC =       427.96691961
  Ewald energy   TEWEN  =     37415.79810658
  -1/2 Hartree   DENC   =    -52699.79411531
  -exchange  EXHF       =         0.00000000
  -V(xc)+E(xc)   XCENC  =       567.32204420
  PAW double counting   =     12226.86790325   -12098.25020618
  entropy T*S    EENTRO =        -0.02727402
  eigenvalues    EBANDS =     -1919.28449470
  atomic energy  EATOM  =     15821.58433428
  ---------------------------------------------------
  free energy    TOTEN  =      -257.81678230 eV

  energy without entropy =     -257.78950827  energy(sigma->0) =     -257.80769096


--------------------------------------------------------------------------------------------------------




----------------------------------------- Iteration    1(   8)  ---------------------------------------


    POTLOK:  cpu time    0.04: real time    0.04
    SETDIJ:  cpu time    0.01: real time    0.01
     EDDAV:  cpu time    0.98: real time    0.99
       DOS:  cpu time    0.00: real time    0.00
    CHARGE:  cpu time    0.03: real time    0.03
    MIXING:  cpu time    0.00: real time    0.00
    --------------------------------------------
      LOOP:  cpu time    1.06: real time    1.15

 eigenvalue-minimisations  :  1832
 total energy-change (2. order) : 0.4302294E+01  (-0.8227207E+01)
 number of electron     235.0000088 magnetization      -0.4098902
 augmentation part       66.6974569 magnetization      -0.3497470

 Broyden mixing:
  rms(total) = 0.24109E+01    rms(broyden)= 0.24105E+01
  rms(prec ) = 0.26981E+01
  weight for this iteration     100.00

 eigenvalues of (default mixing * dielectric matrix)
  average eigenvalue GAMMA=   0.4787
  0.5066  0.5066  0.4229

 Free energy of the ion-electron system (eV)
  ---------------------------------------------------
  alpha Z        PSCENC =       427.96691961
  Ewald energy   TEWEN  =     37415.79810658
  -1/2 Hartree   DENC   =    -52692.98694913
  -exchange  EXHF       =         0.00000000
  -V(xc)+E(xc)   XCENC  =       569.52129887
  PAW double counting   =     12381.10428286   -12253.80151186
  entropy T*S    EENTRO =         0.04272507
  eigenvalues    EBANDS =     -1922.74369479
  atomic energy  EATOM  =     15821.58433428
  ---------------------------------------------------
  free energy    TOTEN  =      -253.51448851 eV

  energy without entropy =     -253.55721358  energy(sigma->0) =     -253.52873020


--------------------------------------------------------------------------------------------------------




----------------------------------------- Iteration    1(   9)  ---------------------------------------


    POTLOK:  cpu time    0.03: real time    0.03
    SETDIJ:  cpu time    0.01: real time    0.01
     EDDAV:  cpu time    1.08: real time    1.08
       DOS:  cpu time    0.00: real time    0.00
    CHARGE:  cpu time    0.03: real time    0.03
    MIXING:  cpu time    0.00: real time    0.00
    --------------------------------------------
      LOOP:  cpu time    1.15: real time    1.22

 eigenvalue-minimisations  :  2080
 total energy-change (2. order) : 0.2671780E+01  (-0.1045766E+01)
 number of electron     235.0000086 magnetization      -0.5124747
 augmentation part       67.0134476 magnetization      -0.3750611

 Broyden mixing:
  rms(total) = 0.18486E+01    rms(broyden)= 0.18484E+01
  rms(prec ) = 0.20701E+01
  weight for this iteration     100.00

 eigenvalues of (default mixing * dielectric matrix)
  average eigenvalue GAMMA=   0.5972
  0.8068  0.8068  0.3111  0.4643

 Free energy of the ion-electron system (eV)
  ---------------------------------------------------
  alpha Z        PSCENC =       427.96691961
  Ewald energy   TEWEN  =     37415.79810658
  -1/2 Hartree   DENC   =    -52700.52116423
  -exchange  EXHF       =         0.00000000
  -V(xc)+E(xc)   XCENC  =       571.66943766
  PAW double counting   =     12506.85244130   -12380.19437371
  entropy T*S    EENTRO =         0.04348112
  eigenvalues    EBANDS =     -1914.04189135
  atomic energy  EATOM  =     15821.58433428
  ---------------------------------------------------
  free energy    TOTEN  =      -250.84270873 eV

  energy without entropy =     -250.88618985  energy(sigma->0) =     -250.85720244


--------------------------------------------------------------------------------------------------------




----------------------------------------- Iteration    1(  10)  ---------------------------------------


    POTLOK:  cpu time    0.04: real time    0.04
    SETDIJ:  cpu time    0.00: real time    0.01
     EDDAV:  cpu time    1.11: real time    1.11
       DOS:  cpu time    0.00: real time    0.00
    CHARGE:  cpu time    0.03: real time    0.03
    MIXING:  cpu time    0.00: real time    0.00
    --------------------------------------------
      LOOP:  cpu time    1.18: real time    1.36

 eigenvalue-minimisations  :  2144
 total energy-change (2. order) : 0.2070792E+01  (-0.5068718E+00)
 number of electron     235.0000090 magnetization      -0.5970515
 augmentation part       67.7992821 magnetization      -0.2882122

 Broyden mixing:
  rms(total) = 0.10803E+01    rms(broyden)= 0.10795E+01
  rms(prec ) = 0.11844E+01
  weight for this iteration     100.00

 eigenvalues of (default mixing * dielectric matrix)
  average eigenvalue GAMMA=   0.6600
  1.0667  1.0667  0.5300  0.3184  0.3184

 Free energy of the ion-electron system (eV)
  ---------------------------------------------------
  alpha Z        PSCENC =       427.96691961
  Ewald energy   TEWEN  =     37415.79810658
  -1/2 Hartree   DENC   =    -52708.34560196
  -exchange  EXHF       =         0.00000000
  -V(xc)+E(xc)   XCENC  =       574.60343189
  PAW double counting   =     12661.51947607   -12534.59836348
  entropy T*S    EENTRO =         0.03034022
  eigenvalues    EBANDS =     -1907.33056003
  atomic energy  EATOM  =     15821.58433428
  ---------------------------------------------------
  free energy    TOTEN  =      -248.77191683 eV

  energy without entropy =     -248.80225705  energy(sigma->0) =     -248.78203024


--------------------------------------------------------------------------------------------------------




----------------------------------------- Iteration    1(  11)  ---------------------------------------


    POTLOK:  cpu time    0.03: real time    0.03
    SETDIJ:  cpu time    0.01: real time    0.01
     EDDAV:  cpu time    1.13: real time    1.13
       DOS:  cpu time    0.00: real time    0.00
    CHARGE:  cpu time    0.03: real time    0.03
    MIXING:  cpu time    0.00: real time    0.00
    --------------------------------------------
      LOOP:  cpu time    1.20: real time    1.31

 eigenvalue-minimisations  :  2184
 total energy-change (2. order) :-0.4363069E+00  (-0.2261800E+00)
 number of electron     235.0000088 magnetization      -0.6647991
 augmentation part       68.2112711 magnetization      -0.2119155

 Broyden mixing:
  rms(total) = 0.75701E+00    rms(broyden)= 0.75598E+00
  rms(prec ) = 0.81582E+00
  weight for this iteration     100.00

 eigenvalues of (default mixing * dielectric matrix)
  average eigenvalue GAMMA=   0.7632
  1.4168  1.4168  0.5254  0.5254  0.3885  0.3060

 Free energy of the ion-electron system (eV)
  ---------------------------------------------------
  alpha Z        PSCENC =       427.96691961
  Ewald energy   TEWEN  =     37415.79810658
  -1/2 Hartree   DENC   =    -52699.94706473
  -exchange  EXHF       =         0.00000000
  -V(xc)+E(xc)   XCENC  =       576.55755329
  PAW double counting   =     12747.12399194   -12618.51200737
  entropy T*S    EENTRO =         0.02777718
  eigenvalues    EBANDS =     -1919.80783454
  atomic energy  EATOM  =     15821.58433428
  ---------------------------------------------------
  free energy    TOTEN  =      -249.20822375 eV

  energy without entropy =     -249.23600093  energy(sigma->0) =     -249.21748281


--------------------------------------------------------------------------------------------------------




----------------------------------------- Iteration    1(  12)  ---------------------------------------


    POTLOK:  cpu time    0.03: real time    0.03
    SETDIJ:  cpu time    0.01: real time    0.01
     EDDAV:  cpu time    1.09: real time    1.09
       DOS:  cpu time    0.00: real time    0.00
    CHARGE:  cpu time    0.03: real time    0.03
    MIXING:  cpu time    0.00: real time    0.00
    --------------------------------------------
      LOOP:  cpu time    1.16: real time    1.24

 eigenvalue-minimisations  :  2096
 total energy-change (2. order) :-0.7341354E+00  (-0.1782596E+00)
 number of electron     235.0000088 magnetization      -0.7283071
 augmentation part       68.4310729 magnetization      -0.1243851

 Broyden mixing:
  rms(total) = 0.58566E+00    rms(broyden)= 0.58472E+00
  rms(prec ) = 0.64226E+00
  weight for this iteration     100.00

 eigenvalues of (default mixing * dielectric matrix)
  average eigenvalue GAMMA=   0.7877
  1.6130  1.6130  0.5747  0.5747  0.4939  0.3221  0.3221

 Free energy of the ion-electron system (eV)
  ---------------------------------------------------
  alpha Z        PSCENC =       427.96691961
  Ewald energy   TEWEN  =     37415.79810658
  -1/2 Hartree   DENC   =    -52696.83788895
  -exchange  EXHF       =         0.00000000
  -V(xc)+E(xc)   XCENC  =       578.07506989
  PAW double counting   =     12805.54293475   -12676.76215224
  entropy T*S    EENTRO =        -0.04177878
  eigenvalues    EBANDS =     -1925.26790425
  atomic energy  EATOM  =     15821.58433428
  ---------------------------------------------------
  free energy    TOTEN  =      -249.94235912 eV

  energy without entropy =     -249.90058034  energy(sigma->0) =     -249.92843286


--------------------------------------------------------------------------------------------------------




----------------------------------------- Iteration    1(  13)  ---------------------------------------


    POTLOK:  cpu time    0.03: real time    0.03
    SETDIJ:  cpu time    0.01: real time    0.01
     EDDAV:  cpu time    1.08: real time    1.08
       DOS:  cpu time    0.00: real time    0.00
    CHARGE:  cpu time    0.03: real time    0.03
    MIXING:  cpu time    0.00: real time    0.00
    --------------------------------------------
      LOOP:  cpu time    1.15: real time    1.24

 eigenvalue-minimisations  :  2080
 total energy-change (2. order) :-0.2237171E+00  (-0.1638894E+00)
 number of electron     235.0000087 magnetization      -0.7308088
 augmentation part       68.7515323 magnetization       0.0524511

 Broyden mixing:
  rms(total) = 0.43904E+00    rms(broyden)= 0.43760E+00
  rms(prec ) = 0.46760E+00
  weight for this iteration     100.00

 eigenvalues of (default mixing * dielectric matrix)
  average eigenvalue GAMMA=   0.7082
  1.6147  1.6147  0.5862  0.5862  0.4965  0.3336  0.3133  0.1207

 Free energy of the ion-electron system (eV)
  ---------------------------------------------------
  alpha Z        PSCENC =       427.96691961
  Ewald energy   TEWEN  =     37415.79810658
  -1/2 Hartree   DENC   =    -52708.17498414
  -exchange  EXHF       =         0.00000000
  -V(xc)+E(xc)   XCENC  =       580.06029937
  PAW double counting   =     12886.83966020   -12758.61231262
  entropy T*S    EENTRO =        -0.01711783
  eigenvalues    EBANDS =     -1915.61098167
  atomic energy  EATOM  =     15821.58433428
  ---------------------------------------------------
  free energy    TOTEN  =      -250.16607623 eV

  energy without entropy =     -250.14895840  energy(sigma->0) =     -250.16037029


--------------------------------------------------------------------------------------------------------




----------------------------------------- Iteration    1(  14)  ---------------------------------------


    POTLOK:  cpu time    0.03: real time    0.03
    SETDIJ:  cpu time    0.01: real time    0.01
     EDDAV:  cpu time    0.83: real time    0.83
       DOS:  cpu time    0.00: real time    0.00
    CHARGE:  cpu time    0.03: real time    0.03
    MIXING:  cpu time    0.00: real time    0.00
    --------------------------------------------
      LOOP:  cpu time    0.90: real time    0.98

 eigenvalue-minimisations  :  1496
 total energy-change (2. order) :-0.3074217E-01  (-0.1970460E-01)
 number of electron     235.0000087 magnetization      -0.7604277
 augmentation part       68.7369373 magnetization       0.0148393

 Broyden mixing:
  rms(total) = 0.41192E+00    rms(broyden)= 0.41186E+00
  rms(prec ) = 0.43896E+00
  weight for this iteration     100.00

 eigenvalues of (default mixing * dielectric matrix)
  average eigenvalue GAMMA=   0.7909
  1.7268  1.7268  0.7109  0.7109  0.5659  0.5659  0.4650  0.3085  0.3375

 Free energy of the ion-electron system (eV)
  ---------------------------------------------------
  alpha Z        PSCENC =       427.96691961
  Ewald energy   TEWEN  =     37415.79810658
  -1/2 Hartree   DENC   =    -52709.38991877
  -exchange  EXHF       =         0.00000000
  -V(xc)+E(xc)   XCENC  =       580.12613658
  PAW double counting   =     12888.81543816   -12760.63146439
  entropy T*S    EENTRO =        -0.01770050
  eigenvalues    EBANDS =     -1914.44866995
  atomic energy  EATOM  =     15821.58433428
  ---------------------------------------------------
  free energy    TOTEN  =      -250.19681839 eV

  energy without entropy =     -250.17911790  energy(sigma->0) =     -250.19091823


--------------------------------------------------------------------------------------------------------




----------------------------------------- Iteration    1(  15)  ---------------------------------------


    POTLOK:  cpu time    0.03: real time    0.04
    SETDIJ:  cpu time    0.01: real time    0.01
     EDDAV:  cpu time    1.08: real time    1.09
       DOS:  cpu time    0.00: real time    0.00
    CHARGE:  cpu time    0.03: real time    0.03
    MIXING:  cpu time    0.00: real time    0.00
    --------------------------------------------
      LOOP:  cpu time    1.16: real time    1.23

 eigenvalue-minimisations  :  2088
 total energy-change (2. order) :-0.1816698E+00  (-0.2656755E-01)
 number of electron     235.0000086 magnetization      -0.8196181
 augmentation part       68.7527219 magnetization       0.0118953

 Broyden mixing:
  rms(total) = 0.38072E+00    rms(broyden)= 0.38056E+00
  rms(prec ) = 0.40859E+00
  weight for this iteration     100.00

 eigenvalues of (default mixing * dielectric matrix)
  average eigenvalue GAMMA=   0.9023
  2.1559  2.1559  1.0296  1.0296  0.5900  0.5135  0.5135  0.3059  0.3646  0.3646

 Free energy of the ion-electron system (eV)
  ---------------------------------------------------
  alpha Z        PSCENC =       427.96691961
  Ewald energy   TEWEN  =     37415.79810658
  -1/2 Hartree   DENC   =    -52719.19489996
  -exchange  EXHF       =         0.00000000
  -V(xc)+E(xc)   XCENC  =       580.56559053
  PAW double counting   =     12910.10728413   -12781.65772085
  entropy T*S    EENTRO =        -0.00140587
  eigenvalues    EBANDS =     -1905.54669664
  atomic energy  EATOM  =     15821.58433428
  ---------------------------------------------------
  free energy    TOTEN  =      -250.37848818 eV

  energy without entropy =     -250.37708231  energy(sigma->0) =     -250.37801956


--------------------------------------------------------------------------------------------------------




----------------------------------------- Iteration    1(  16)  ---------------------------------------


    POTLOK:  cpu time    0.03: real time    0.03
    SETDIJ:  cpu time    0.01: real time    0.01
     EDDAV:  cpu time    1.09: real time    1.10
       DOS:  cpu time    0.00: real time    0.00
    CHARGE:  cpu time    0.03: real time    0.03
    MIXING:  cpu time    0.00: real time    0.00
    --------------------------------------------
      LOOP:  cpu time    1.16: real time    1.26

 eigenvalue-minimisations  :  2064
 total energy-change (2. order) :-0.1168334E+00  (-0.6120716E-01)
 number of electron     235.0000087 magnetization      -0.8633854
 augmentation part       68.7966607 magnetization       0.0137502

 Broyden mixing:
  rms(total) = 0.29108E+00    rms(broyden)= 0.29087E+00
  rms(prec ) = 0.33077E+00
  weight for this iteration     100.00

 eigenvalues of (default mixing * dielectric matrix)
  average eigenvalue GAMMA=   0.8384
  1.9306  1.9306  1.0804  1.0804  0.6522  0.6522  0.5060  0.3064  0.3429  0.3704
  0.3704

 Free energy of the ion-electron system (eV)
  ---------------------------------------------------
  alpha Z        PSCENC =       427.96691961
  Ewald energy   TEWEN  =     37415.79810658
  -1/2 Hartree   DENC   =    -52734.96893558
  -exchange  EXHF       =         0.00000000
  -V(xc)+E(xc)   XCENC  =       581.75193980
  PAW double counting   =     12950.07769687   -12821.76859691
  entropy T*S    EENTRO =        -0.00256902
  eigenvalues    EBANDS =     -1890.93421717
  atomic energy  EATOM  =     15821.58433428
  ---------------------------------------------------
  free energy    TOTEN  =      -250.49532155 eV

  energy without entropy =     -250.49275252  energy(sigma->0) =     -250.49446520


--------------------------------------------------------------------------------------------------------




----------------------------------------- Iteration    1(  17)  ---------------------------------------


    POTLOK:  cpu time    0.04: real time    0.04
    SETDIJ:  cpu time    0.01: real time    0.01
     EDDAV:  cpu time    1.09: real time    1.09
       DOS:  cpu time    0.00: real time    0.00
    CHARGE:  cpu time    0.03: real time    0.03
    MIXING:  cpu time    0.00: real time    0.00
    --------------------------------------------
      LOOP:  cpu time    1.16: real time    1.35

 eigenvalue-minimisations  :  2088
 total energy-change (2. order) : 0.3148446E-01  (-0.3235200E-01)
 number of electron     235.0000086 magnetization      -0.8873861
 augmentation part       68.9351325 magnetization      -0.0028507

 Broyden mixing:
  rms(total) = 0.13251E+00    rms(broyden)= 0.13214E+00
  rms(prec ) = 0.14785E+00
  weight for this iteration     100.00

 eigenvalues of (default mixing * dielectric matrix)
  average eigenvalue GAMMA=   0.8205
  1.4921  1.4921  1.4894  1.4894  0.7732  0.7732  0.4786  0.4786  0.4149  0.3451
  0.3097  0.3097

 Free energy of the ion-electron system (eV)
  ---------------------------------------------------
  alpha Z        PSCENC =       427.96691961
  Ewald energy   TEWEN  =     37415.79810658
  -1/2 Hartree   DENC   =    -52743.20491606
  -exchange  EXHF       =         0.00000000
  -V(xc)+E(xc)   XCENC  =       582.76269762
  PAW double counting   =     12994.45304826   -12866.86174734
  entropy T*S    EENTRO =         0.00022965
  eigenvalues    EBANDS =     -1882.96250969
  atomic energy  EATOM  =     15821.58433428
  ---------------------------------------------------
  free energy    TOTEN  =      -250.46383709 eV

  energy without entropy =     -250.46406674  energy(sigma->0) =     -250.46391364


--------------------------------------------------------------------------------------------------------




----------------------------------------- Iteration    1(  18)  ---------------------------------------


    POTLOK:  cpu time    0.03: real time    0.03
    SETDIJ:  cpu time    0.01: real time    0.01
     EDDAV:  cpu time    1.06: real time    1.07
       DOS:  cpu time    0.00: real time    0.00
    CHARGE:  cpu time    0.03: real time    0.03
    MIXING:  cpu time    0.00: real time    0.00
    --------------------------------------------
      LOOP:  cpu time    1.13: real time    1.33

 eigenvalue-minimisations  :  2040
 total energy-change (2. order) :-0.3691691E-01  (-0.2201881E-01)
 number of electron     235.0000087 magnetization      -0.9144662
 augmentation part       68.9898823 magnetization       0.0010824

 Broyden mixing:
  rms(total) = 0.14020E+00    rms(broyden)= 0.14006E+00
  rms(prec ) = 0.15602E+00
  weight for this iteration     100.00

 eigenvalues of (default mixing * dielectric matrix)
  average eigenvalue GAMMA=   0.8150
  1.6806  1.6806  1.3608  1.3608  0.8385  0.8385  0.5419  0.5419  0.4584  0.3470
  0.3055  0.3204  0.3204

 Free energy of the ion-electron system (eV)
  ---------------------------------------------------
  alpha Z        PSCENC =       427.96691961
  Ewald energy   TEWEN  =     37415.79810658
  -1/2 Hartree   DENC   =    -52749.99133893
  -exchange  EXHF       =         0.00000000
  -V(xc)+E(xc)   XCENC  =       583.11606324
  PAW double counting   =     13015.87468715   -12889.06029236
  entropy T*S    EENTRO =         0.00335520
  eigenvalues    EBANDS =     -1875.79258876
  atomic energy  EATOM  =     15821.58433428
  ---------------------------------------------------
  free energy    TOTEN  =      -250.50075400 eV

  energy without entropy =     -250.50410919  energy(sigma->0) =     -250.50187239


--------------------------------------------------------------------------------------------------------




----------------------------------------- Iteration    1(  19)  ---------------------------------------


    POTLOK:  cpu time    0.03: real time    0.03
    SETDIJ:  cpu time    0.01: real time    0.01
     EDDAV:  cpu time    1.01: real time    1.01
       DOS:  cpu time    0.00: real time    0.00
    CHARGE:  cpu time    0.03: real time    0.03
    MIXING:  cpu time    0.00: real time    0.00
    --------------------------------------------
      LOOP:  cpu time    1.08: real time    1.16

 eigenvalue-minimisations  :  1912
 total energy-change (2. order) :-0.1211473E-01  (-0.4689862E-02)
 number of electron     235.0000087 magnetization      -0.9358521
 augmentation part       68.9699988 magnetization      -0.0213966

 Broyden mixing:
  rms(total) = 0.85319E-01    rms(broyden)= 0.85257E-01
  rms(prec ) = 0.95687E-01
  weight for this iteration     100.00

 eigenvalues of (default mixing * dielectric matrix)
  average eigenvalue GAMMA=   0.8309
  1.6284  1.6284  1.5612  1.5612  0.8975  0.8975  0.6248  0.6248  0.4173  0.4173
  0.4074  0.3408  0.3120  0.3147

 Free energy of the ion-electron system (eV)
  ---------------------------------------------------
  alpha Z        PSCENC =       427.96691961
  Ewald energy   TEWEN  =     37415.79810658
  -1/2 Hartree   DENC   =    -52758.62794976
  -exchange  EXHF       =         0.00000000
  -V(xc)+E(xc)   XCENC  =       583.36094505
  PAW double counting   =     13026.94229011   -12900.55922529
  entropy T*S    EENTRO =        -0.00047243
  eigenvalues    EBANDS =     -1866.97781687
  atomic energy  EATOM  =     15821.58433428
  ---------------------------------------------------
  free energy    TOTEN  =      -250.51286873 eV

  energy without entropy =     -250.51239629  energy(sigma->0) =     -250.51271125


--------------------------------------------------------------------------------------------------------




----------------------------------------- Iteration    1(  20)  ---------------------------------------


    POTLOK:  cpu time    0.03: real time    0.03
    SETDIJ:  cpu time    0.01: real time    0.01
     EDDAV:  cpu time    0.97: real time    0.98
       DOS:  cpu time    0.00: real time    0.00
    CHARGE:  cpu time    0.03: real time    0.03
    MIXING:  cpu time    0.00: real time    0.00
    --------------------------------------------
      LOOP:  cpu time    1.05: real time    1.13

 eigenvalue-minimisations  :  1840
 total energy-change (2. order) :-0.9877614E-02  (-0.3168181E-02)
 number of electron     235.0000086 magnetization      -0.9486058
 augmentation part       68.9266065 magnetization      -0.0503434

 Broyden mixing:
  rms(total) = 0.42907E-01    rms(broyden)= 0.42864E-01
  rms(prec ) = 0.48101E-01
  weight for this iteration     100.00

 eigenvalues of (default mixing * dielectric matrix)
  average eigenvalue GAMMA=   0.8275
  1.9352  1.7274  1.7274  1.0831  1.0831  0.8740  0.5792  0.5792  0.5431  0.5431
  0.3921  0.3921  0.3423  0.3053  0.3053

 Free energy of the ion-electron system (eV)
  ---------------------------------------------------
  alpha Z        PSCENC =       427.96691961
  Ewald energy   TEWEN  =     37415.79810658
  -1/2 Hartree   DENC   =    -52763.00883667
  -exchange  EXHF       =         0.00000000
  -V(xc)+E(xc)   XCENC  =       583.35750033
  PAW double counting   =     13028.91295736   -12902.91798277
  entropy T*S    EENTRO =        -0.00421632
  eigenvalues    EBANDS =     -1862.21152873
  atomic energy  EATOM  =     15821.58433428
  ---------------------------------------------------
  free energy    TOTEN  =      -250.52274634 eV

  energy without entropy =     -250.51853002  energy(sigma->0) =     -250.52134090


--------------------------------------------------------------------------------------------------------




----------------------------------------- Iteration    1(  21)  ---------------------------------------


    POTLOK:  cpu time    0.03: real time    0.03
    SETDIJ:  cpu time    0.01: real time    0.01
     EDDAV:  cpu time    0.99: real time    0.99
       DOS:  cpu time    0.00: real time    0.00
    CHARGE:  cpu time    0.03: real time    0.03
    MIXING:  cpu time    0.00: real time    0.00
    --------------------------------------------
      LOOP:  cpu time    1.07: real time    1.25

 eigenvalue-minimisations  :  1880
 total energy-change (2. order) :-0.7306140E-02  (-0.1073857E-02)
 number of electron     235.0000087 magnetization      -0.9690292
 augmentation part       68.9168704 magnetization      -0.0754292

 Broyden mixing:
  rms(total) = 0.33897E-01    rms(broyden)= 0.33870E-01
  rms(prec ) = 0.40534E-01
  weight for this iteration     100.00

 eigenvalues of (default mixing * dielectric matrix)
  average eigenvalue GAMMA=   0.8476
  2.2448  1.7282  1.7282  1.2951  1.2951  0.6676  0.6676  0.6479  0.6479  0.4548
  0.4247  0.4247  0.3615  0.3503  0.3116  0.3116

 Free energy of the ion-electron system (eV)
  ---------------------------------------------------
  alpha Z        PSCENC =       427.96691961
  Ewald energy   TEWEN  =     37415.79810658
  -1/2 Hartree   DENC   =    -52765.42016979
  -exchange  EXHF       =         0.00000000
  -V(xc)+E(xc)   XCENC  =       583.30122878
  PAW double counting   =     13030.28771900   -12904.49642515
  entropy T*S    EENTRO =        -0.00335487
  eigenvalues    EBANDS =     -1859.54841093
  atomic energy  EATOM  =     15821.58433428
  ---------------------------------------------------
  free energy    TOTEN  =      -250.53005248 eV

  energy without entropy =     -250.52669761  energy(sigma->0) =     -250.52893419


--------------------------------------------------------------------------------------------------------




----------------------------------------- Iteration    1(  22)  ---------------------------------------


    POTLOK:  cpu time    0.03: real time    0.03
    SETDIJ:  cpu time    0.01: real time    0.01
     EDDAV:  cpu time    0.95: real time    0.95
       DOS:  cpu time    0.00: real time    0.00
    CHARGE:  cpu time    0.03: real time    0.03
    MIXING:  cpu time    0.00: real time    0.00
    --------------------------------------------
      LOOP:  cpu time    1.02: real time    1.10

 eigenvalue-minimisations  :  1784
 total energy-change (2. order) :-0.6033491E-02  (-0.6586736E-03)
 number of electron     235.0000086 magnetization      -0.9863602
 augmentation part       68.9045013 magnetization      -0.0969422

 Broyden mixing:
  rms(total) = 0.24619E-01    rms(broyden)= 0.24582E-01
  rms(prec ) = 0.30051E-01
  weight for this iteration     100.00

 eigenvalues of (default mixing * dielectric matrix)
  average eigenvalue GAMMA=   0.8676
  2.4709  1.6790  1.6790  1.4556  1.4556  0.8356  0.8356  0.6152  0.6152  0.5439
  0.4397  0.4397  0.4186  0.3463  0.3056  0.3067  0.3067

 Free energy of the ion-electron system (eV)
  ---------------------------------------------------
  alpha Z        PSCENC =       427.96691961
  Ewald energy   TEWEN  =     37415.79810658
  -1/2 Hartree   DENC   =    -52770.59433352
  -exchange  EXHF       =         0.00000000
  -V(xc)+E(xc)   XCENC  =       583.27546882
  PAW double counting   =     13032.72411743   -12907.16673904
  entropy T*S    EENTRO =        -0.00417766
  eigenvalues    EBANDS =     -1854.11978247
  atomic energy  EATOM  =     15821.58433428
  ---------------------------------------------------
  free energy    TOTEN  =      -250.53608597 eV

  energy without entropy =     -250.53190831  energy(sigma->0) =     -250.53469342


--------------------------------------------------------------------------------------------------------




----------------------------------------- Iteration    1(  23)  ---------------------------------------


    POTLOK:  cpu time    0.03: real time    0.03
    SETDIJ:  cpu time    0.01: real time    0.01
     EDDAV:  cpu time    0.99: real time    0.99
       DOS:  cpu time    0.00: real time    0.00
    CHARGE:  cpu time    0.03: real time    0.03
    MIXING:  cpu time    0.00: real time    0.00
    --------------------------------------------
      LOOP:  cpu time    1.06: real time    1.14

 eigenvalue-minimisations  :  1872
 total energy-change (2. order) :-0.5921883E-02  (-0.4392558E-03)
 number of electron     235.0000086 magnetization      -0.9967466
 augmentation part       68.8884913 magnetization      -0.1118869

 Broyden mixing:
  rms(total) = 0.21772E-01    rms(broyden)= 0.21754E-01
  rms(prec ) = 0.25767E-01
  weight for this iteration     100.00

 eigenvalues of (default mixing * dielectric matrix)
  average eigenvalue GAMMA=   0.8783
  2.5879  1.7539  1.7539  1.4583  1.4583  0.9127  0.9127  0.6962  0.6621  0.5376
  0.5376  0.4235  0.4235  0.4122  0.3452  0.3069  0.3139  0.3139

 Free energy of the ion-electron system (eV)
  ---------------------------------------------------
  alpha Z        PSCENC =       427.96691961
  Ewald energy   TEWEN  =     37415.79810658
  -1/2 Hartree   DENC   =    -52774.61271199
  -exchange  EXHF       =         0.00000000
  -V(xc)+E(xc)   XCENC  =       583.23326556
  PAW double counting   =     13032.58486012   -12907.17020246
  entropy T*S    EENTRO =        -0.00564968
  eigenvalues    EBANDS =     -1849.92092988
  atomic energy  EATOM  =     15821.58433428
  ---------------------------------------------------
  free energy    TOTEN  =      -250.54200785 eV

  energy without entropy =     -250.53635818  energy(sigma->0) =     -250.54012463


--------------------------------------------------------------------------------------------------------




----------------------------------------- Iteration    1(  24)  ---------------------------------------


    POTLOK:  cpu time    0.03: real time    0.03
    SETDIJ:  cpu time    0.01: real time    0.01
     EDDAV:  cpu time    0.90: real time    0.90
       DOS:  cpu time    0.00: real time    0.00
    CHARGE:  cpu time    0.03: real time    0.03
    MIXING:  cpu time    0.00: real time    0.00
    --------------------------------------------
      LOOP:  cpu time    0.97: real time    1.04

 eigenvalue-minimisations  :  1664
 total energy-change (2. order) :-0.3237781E-02  (-0.1818001E-03)
 number of electron     235.0000086 magnetization      -1.0087774
 augmentation part       68.8900668 magnetization      -0.1238328

 Broyden mixing:
  rms(total) = 0.10001E-01    rms(broyden)= 0.99823E-02
  rms(prec ) = 0.13627E-01
  weight for this iteration     100.00

 eigenvalues of (default mixing * dielectric matrix)
  average eigenvalue GAMMA=   0.8727
  2.5803  1.7415  1.7415  1.2895  1.2895  1.1847  0.8944  0.8944  0.8105  0.5680
  0.5184  0.5184  0.4351  0.4351  0.3882  0.3474  0.3070  0.3183  0.3183

 Free energy of the ion-electron system (eV)
  ---------------------------------------------------
  alpha Z        PSCENC =       427.96691961
  Ewald energy   TEWEN  =     37415.79810658
  -1/2 Hartree   DENC   =    -52776.39605080
  -exchange  EXHF       =         0.00000000
  -V(xc)+E(xc)   XCENC  =       583.20361181
  PAW double counting   =     13031.58725022   -12906.14088966
  entropy T*S    EENTRO =        -0.00542285
  eigenvalues    EBANDS =     -1848.14310483
  atomic energy  EATOM  =     15821.58433428
  ---------------------------------------------------
  free energy    TOTEN  =      -250.54524563 eV

  energy without entropy =     -250.53982278  energy(sigma->0) =     -250.54343802


--------------------------------------------------------------------------------------------------------




----------------------------------------- Iteration    1(  25)  ---------------------------------------


    POTLOK:  cpu time    0.03: real time    0.03
    SETDIJ:  cpu time    0.01: real time    0.01
     EDDAV:  cpu time    0.82: real time    0.82
       DOS:  cpu time    0.00: real time    0.00
    CHARGE:  cpu time    0.03: real time    0.03
    MIXING:  cpu time    0.00: real time    0.00
    --------------------------------------------
      LOOP:  cpu time    0.89: real time    0.97

 eigenvalue-minimisations  :  1464
 total energy-change (2. order) :-0.2741866E-02  (-0.1045271E-03)
 number of electron     235.0000086 magnetization      -1.0211004
 augmentation part       68.8899275 magnetization      -0.1346891

 Broyden mixing:
  rms(total) = 0.59809E-02    rms(broyden)= 0.59718E-02
  rms(prec ) = 0.94140E-02
  weight for this iteration     100.00

 eigenvalues of (default mixing * dielectric matrix)
  average eigenvalue GAMMA=   0.9031
  2.3075  2.3075  1.7593  1.7593  1.3189  1.3189  0.8660  0.8660  0.8159  0.5383
  0.5383  0.5513  0.5414  0.4416  0.4416  0.3981  0.3480  0.3189  0.3189  0.3071

 Free energy of the ion-electron system (eV)
  ---------------------------------------------------
  alpha Z        PSCENC =       427.96691961
  Ewald energy   TEWEN  =     37415.79810658
  -1/2 Hartree   DENC   =    -52778.89424010
  -exchange  EXHF       =         0.00000000
  -V(xc)+E(xc)   XCENC  =       583.18400279
  PAW double counting   =     13030.31753605   -12904.80340301
  entropy T*S    EENTRO =        -0.00517575
  eigenvalues    EBANDS =     -1845.69606796
  atomic energy  EATOM  =     15821.58433428
  ---------------------------------------------------
  free energy    TOTEN  =      -250.54798750 eV

  energy without entropy =     -250.54281175  energy(sigma->0) =     -250.54626225


--------------------------------------------------------------------------------------------------------




----------------------------------------- Iteration    1(  26)  ---------------------------------------


    POTLOK:  cpu time    0.03: real time    0.03
    SETDIJ:  cpu time    0.00: real time    0.01
     EDDAV:  cpu time    0.70: real time    0.70
       DOS:  cpu time    0.00: real time    0.00
    CHARGE:  cpu time    0.03: real time    0.03
    MIXING:  cpu time    0.00: real time    0.00
    --------------------------------------------
      LOOP:  cpu time    0.77: real time    0.85

 eigenvalue-minimisations  :  1176
 total energy-change (2. order) :-0.1739906E-02  (-0.5371623E-04)
 number of electron     235.0000086 magnetization      -1.0317493
 augmentation part       68.8923651 magnetization      -0.1438016

 Broyden mixing:
  rms(total) = 0.51072E-02    rms(broyden)= 0.51043E-02
  rms(prec ) = 0.74245E-02
  weight for this iteration     100.00

 eigenvalues of (default mixing * dielectric matrix)
  average eigenvalue GAMMA=   0.9140
  2.6693  2.2019  1.7625  1.7625  1.3886  1.3886  0.8993  0.8993  0.7830  0.7830
  0.5279  0.5279  0.5282  0.5282  0.4299  0.4299  0.3907  0.3480  0.3071  0.3188
  0.3188

 Free energy of the ion-electron system (eV)
  ---------------------------------------------------
  alpha Z        PSCENC =       427.96691961
  Ewald energy   TEWEN  =     37415.79810658
  -1/2 Hartree   DENC   =    -52781.68536179
  -exchange  EXHF       =         0.00000000
  -V(xc)+E(xc)   XCENC  =       583.17181763
  PAW double counting   =     13029.22075155   -12903.63099222
  entropy T*S    EENTRO =        -0.00486288
  eigenvalues    EBANDS =     -1842.97044017
  atomic energy  EATOM  =     15821.58433428
  ---------------------------------------------------
  free energy    TOTEN  =      -250.54972741 eV

  energy without entropy =     -250.54486453  energy(sigma->0) =     -250.54810645


--------------------------------------------------------------------------------------------------------




----------------------------------------- Iteration    1(  27)  ---------------------------------------


    POTLOK:  cpu time    0.03: real time    0.03
    SETDIJ:  cpu time    0.01: real time    0.01
     EDDAV:  cpu time    0.67: real time    0.68
       DOS:  cpu time    0.00: real time    0.00
    CHARGE:  cpu time    0.03: real time    0.03
    MIXING:  cpu time    0.00: real time    0.00
    --------------------------------------------
      LOOP:  cpu time    0.75: real time    0.94

 eigenvalue-minimisations  :  1120
 total energy-change (2. order) :-0.1018908E-02  (-0.3460675E-04)
 number of electron     235.0000086 magnetization      -1.0408227
 augmentation part       68.8926626 magnetization      -0.1535043

 Broyden mixing:
  rms(total) = 0.45768E-02    rms(broyden)= 0.45732E-02
  rms(prec ) = 0.61354E-02
  weight for this iteration     100.00

 eigenvalues of (default mixing * dielectric matrix)
  average eigenvalue GAMMA=   0.9416
  3.0396  2.3762  1.7529  1.7529  1.4712  1.4712  0.9220  0.9220  0.8413  0.8413
  0.6298  0.5612  0.5612  0.5177  0.5177  0.4268  0.4268  0.3907  0.3478  0.3071
  0.3185  0.3185

 Free energy of the ion-electron system (eV)
  ---------------------------------------------------
  alpha Z        PSCENC =       427.96691961
  Ewald energy   TEWEN  =     37415.79810658
  -1/2 Hartree   DENC   =    -52784.31174893
  -exchange  EXHF       =         0.00000000
  -V(xc)+E(xc)   XCENC  =       583.18081103
  PAW double counting   =     13028.92038841   -12903.32389169
  entropy T*S    EENTRO =        -0.00482219
  eigenvalues    EBANDS =     -1840.36084341
  atomic energy  EATOM  =     15821.58433428
  ---------------------------------------------------
  free energy    TOTEN  =      -250.55074632 eV

  energy without entropy =     -250.54592412  energy(sigma->0) =     -250.54913892


--------------------------------------------------------------------------------------------------------




----------------------------------------- Iteration    1(  28)  ---------------------------------------


    POTLOK:  cpu time    0.03: real time    0.03
    SETDIJ:  cpu time    0.01: real time    0.01
     EDDAV:  cpu time    0.63: real time    0.63
       DOS:  cpu time    0.00: real time    0.00
    CHARGE:  cpu time    0.03: real time    0.03
    MIXING:  cpu time    0.00: real time    0.00
    --------------------------------------------
      LOOP:  cpu time    0.70: real time    0.77

 eigenvalue-minimisations  :  1008
 total energy-change (2. order) :-0.8352341E-03  (-0.2297505E-04)
 number of electron     235.0000086 magnetization      -1.0451602
 augmentation part       68.8908704 magnetization      -0.1581241

 Broyden mixing:
  rms(total) = 0.25409E-02    rms(broyden)= 0.25378E-02
  rms(prec ) = 0.33934E-02
  weight for this iteration     100.00

 eigenvalues of (default mixing * dielectric matrix)
  average eigenvalue GAMMA=   0.9847
  3.7571  2.6130  1.7646  1.7646  1.5320  1.5320  0.9509  0.9509  0.8974  0.8974
  0.6742  0.6742  0.5257  0.5257  0.5244  0.5244  0.4294  0.4294  0.3898  0.3478
  0.3071  0.3185  0.3185

 Free energy of the ion-electron system (eV)
  ---------------------------------------------------
  alpha Z        PSCENC =       427.96691961
  Ewald energy   TEWEN  =     37415.79810658
  -1/2 Hartree   DENC   =    -52786.84000011
  -exchange  EXHF       =         0.00000000
  -V(xc)+E(xc)   XCENC  =       583.18913286
  PAW double counting   =     13028.62823532   -12903.03949630
  entropy T*S    EENTRO =        -0.00506692
  eigenvalues    EBANDS =     -1837.83374686
  atomic energy  EATOM  =     15821.58433428
  ---------------------------------------------------
  free energy    TOTEN  =      -250.55158155 eV

  energy without entropy =     -250.54651463  energy(sigma->0) =     -250.54989257


--------------------------------------------------------------------------------------------------------




----------------------------------------- Iteration    1(  29)  ---------------------------------------


    POTLOK:  cpu time    0.03: real time    0.03
    SETDIJ:  cpu time    0.01: real time    0.01
     EDDAV:  cpu time    0.57: real time    0.57
       DOS:  cpu time    0.00: real time    0.00
    CHARGE:  cpu time    0.03: real time    0.03
    MIXING:  cpu time    0.00: real time    0.00
    --------------------------------------------
      LOOP:  cpu time    0.64: real time    0.70

 eigenvalue-minimisations  :   864
 total energy-change (2. order) :-0.5000302E-03  (-0.1296309E-04)
 number of electron     235.0000086 magnetization      -1.0464969
 augmentation part       68.8906481 magnetization      -0.1593621

 Broyden mixing:
  rms(total) = 0.17592E-02    rms(broyden)= 0.17569E-02
  rms(prec ) = 0.22221E-02
  weight for this iteration     100.00

 eigenvalues of (default mixing * dielectric matrix)
  average eigenvalue GAMMA=   1.0185
  4.5292  2.6082  1.7620  1.7620  1.5298  1.5298  1.1940  1.1940  0.8817  0.8817
  0.6872  0.6872  0.5241  0.5241  0.5624  0.5226  0.5226  0.4300  0.4300  0.3900
  0.3478  0.3071  0.3185  0.3185

 Free energy of the ion-electron system (eV)
  ---------------------------------------------------
  alpha Z        PSCENC =       427.96691961
  Ewald energy   TEWEN  =     37415.79810658
  -1/2 Hartree   DENC   =    -52788.31144978
  -exchange  EXHF       =         0.00000000
  -V(xc)+E(xc)   XCENC  =       583.19283166
  PAW double counting   =     13028.47489901   -12902.88462283
  entropy T*S    EENTRO =        -0.00506414
  eigenvalues    EBANDS =     -1836.36803598
  atomic energy  EATOM  =     15821.58433428
  ---------------------------------------------------
  free energy    TOTEN  =      -250.55208158 eV

  energy without entropy =     -250.54701744  energy(sigma->0) =     -250.55039353


--------------------------------------------------------------------------------------------------------




----------------------------------------- Iteration    1(  30)  ---------------------------------------


    POTLOK:  cpu time    0.03: real time    0.03
    SETDIJ:  cpu time    0.01: real time    0.01
     EDDAV:  cpu time    0.54: real time    0.54
       DOS:  cpu time    0.00: real time    0.00
    CHARGE:  cpu time    0.03: real time    0.03
    MIXING:  cpu time    0.00: real time    0.00
    --------------------------------------------
      LOOP:  cpu time    0.62: real time    0.68

 eigenvalue-minimisations  :   800
 total energy-change (2. order) :-0.2616922E-03  (-0.7740685E-05)
 number of electron     235.0000086 magnetization      -1.0466904
 augmentation part       68.8907336 magnetization      -0.1591938

 Broyden mixing:
  rms(total) = 0.12785E-02    rms(broyden)= 0.12776E-02
  rms(prec ) = 0.15572E-02
  weight for this iteration     100.00

 eigenvalues of (default mixing * dielectric matrix)
  average eigenvalue GAMMA=   1.0456
  5.3657  2.5758  1.7635  1.7635  1.4479  1.4479  1.3903  1.3903  0.8991  0.8991
  0.7312  0.7312  0.5267  0.5267  0.5288  0.5288  0.5405  0.5405  0.4298  0.4298
  0.3903  0.3071  0.3185  0.3185  0.3478

 Free energy of the ion-electron system (eV)
  ---------------------------------------------------
  alpha Z        PSCENC =       427.96691961
  Ewald energy   TEWEN  =     37415.79810658
  -1/2 Hartree   DENC   =    -52789.01097235
  -exchange  EXHF       =         0.00000000
  -V(xc)+E(xc)   XCENC  =       583.19807929
  PAW double counting   =     13028.43811861   -12902.84625500
  entropy T*S    EENTRO =        -0.00507120
  eigenvalues    EBANDS =     -1835.67560310
  atomic energy  EATOM  =     15821.58433428
  ---------------------------------------------------
  free energy    TOTEN  =      -250.55234327 eV

  energy without entropy =     -250.54727208  energy(sigma->0) =     -250.55065287


--------------------------------------------------------------------------------------------------------




----------------------------------------- Iteration    1(  31)  ---------------------------------------


    POTLOK:  cpu time    0.03: real time    0.03
    SETDIJ:  cpu time    0.01: real time    0.01
     EDDAV:  cpu time    0.55: real time    0.55
       DOS:  cpu time    0.00: real time    0.00
    CHARGE:  cpu time    0.03: real time    0.03
    MIXING:  cpu time    0.00: real time    0.00
    --------------------------------------------
      LOOP:  cpu time    0.62: real time    0.68

 eigenvalue-minimisations  :   760
[...]
 -0.003  -0.046   0.788  -0.012   0.019   0.001   0.025   0.263
  0.020  -0.005  -0.012   0.807  -0.005  -0.006   0.003   0.005
 -0.008   0.040   0.019  -0.005   0.790   0.004  -0.023  -0.009
  0.002   0.001  -0.001  -0.009   0.002  -0.000  -0.002  -0.001
 -0.000  -0.000   0.000   0.001  -0.000   0.000   0.000  -0.000
 -0.045  -0.020   0.000  -0.002   0.006   0.008   0.003  -0.000
 -0.002  -0.010  -0.023  -0.044   0.000   0.001   0.002   0.004
 -0.004  -0.002   0.027  -0.019  -0.046   0.001   0.001  -0.005
  0.044   0.012   0.001  -0.000  -0.003  -0.009  -0.002  -0.000
 -0.000   0.006   0.013   0.041  -0.001  -0.000  -0.001  -0.003
  0.001  -0.000  -0.025   0.010   0.041  -0.000  -0.000   0.005
 pseudopotential strength for first ion, spin component:           2
 -7.316   0.044   0.023   0.114  -0.053  -0.062  -0.010  -0.003
  0.044  -7.870  -0.401  -0.017   0.411  -0.010   0.030   0.061
  0.023  -0.401  -7.375  -0.047   0.077  -0.003   0.061  -0.045
  0.114  -0.017  -0.047  -7.310   0.045  -0.009   0.004   0.005
 -0.053   0.411   0.077   0.045  -7.199   0.008  -0.064  -0.010
 -0.062  -0.010  -0.003  -0.009   0.008   0.563   0.002   0.001
 -0.010   0.030   0.061   0.004  -0.064   0.002   0.531  -0.023
 -0.003   0.061  -0.045   0.005  -0.010   0.001  -0.023   0.559
 -0.009   0.004   0.005  -0.061  -0.008   0.006  -0.001  -0.003
  0.008  -0.064  -0.010  -0.008  -0.072  -0.003   0.024   0.004
  0.004   0.049   0.023  -0.011  -0.020  -0.000  -0.009  -0.004
 -0.001  -0.005  -0.002   0.002   0.002   0.000   0.001   0.000
 -0.076  -0.016   0.002   0.009   0.005   0.016   0.002  -0.000
  0.009  -0.004  -0.013  -0.072   0.002  -0.002   0.000   0.001
 -0.002   0.009   0.039  -0.011  -0.064   0.000  -0.002  -0.008
  0.056   0.010  -0.000  -0.005  -0.003  -0.012  -0.002   0.000
 -0.005   0.003   0.008   0.052  -0.002   0.001  -0.000  -0.001
  0.000  -0.005  -0.029   0.006   0.047  -0.000   0.001   0.006
 total augmentation occupancy for first ion, spin component:           1
  1.127   0.019  -0.007  -0.027  -0.003  -0.110  -0.031  -0.005  -0.084   0.029   0.006  -0.009   0.022  -0.020   0.009  -0.041
  0.019   1.036  -0.005  -0.013   0.003  -0.032   0.286   0.251   0.022  -0.230   0.126  -0.078  -0.052  -0.048  -0.072  -0.007
 -0.007  -0.005   1.082   0.001   0.007  -0.006   0.249  -0.058   0.023  -0.091   0.056  -0.053  -0.019  -0.038  -0.030  -0.000
 -0.027  -0.013   0.001   1.125  -0.003  -0.083   0.021   0.023  -0.115  -0.016  -0.001  -0.026  -0.022   0.010  -0.021   0.007
 -0.003   0.003   0.007  -0.003   1.058   0.029  -0.229  -0.091  -0.017  -0.122  -0.027   0.034   0.022   0.013   0.023   0.000
 -0.110  -0.032  -0.006  -0.083   0.029   0.677   0.019  -0.058  -0.187  -0.010   0.054  -0.013   0.190  -0.140   0.001  -0.001
 -0.031   0.286   0.249   0.021  -0.229   0.019   0.568   0.138  -0.029  -0.130   0.213  -0.114  -0.045  -0.066  -0.066   0.003
 -0.005   0.251  -0.058   0.023  -0.091  -0.058   0.138   0.493  -0.014  -0.030   0.138  -0.054  -0.037  -0.071  -0.067   0.000
 -0.084   0.022   0.023  -0.115  -0.017  -0.187  -0.029  -0.014   0.675  -0.013  -0.023   0.036  -0.134   0.160  -0.043   0.007
  0.029  -0.230  -0.091  -0.016  -0.122  -0.010  -0.130  -0.030  -0.013   0.363  -0.029   0.003   0.018   0.006   0.097  -0.001
  0.006   0.126   0.056  -0.001  -0.027   0.054   0.213   0.138  -0.023  -0.029   1.125  -0.301  -0.034  -0.077   0.189   0.001
 -0.009  -0.078  -0.053  -0.026   0.034  -0.013  -0.114  -0.054   0.036   0.003  -0.301   0.226   0.010   0.033  -0.079  -0.000
  0.022  -0.052  -0.019  -0.022   0.022   0.190  -0.045  -0.037  -0.134   0.018  -0.034   0.010   0.202   0.063   0.004  -0.010
 -0.020  -0.048  -0.038   0.010   0.013  -0.140  -0.066  -0.071   0.160   0.006  -0.077   0.033   0.063   0.251  -0.001  -0.004
  0.009  -0.072  -0.030  -0.021   0.023   0.001  -0.066  -0.067  -0.043   0.097   0.189  -0.079   0.004  -0.001   0.132  -0.000
 -0.041  -0.007  -0.000   0.007   0.000  -0.001   0.003   0.000   0.007  -0.001   0.001  -0.000  -0.010  -0.004  -0.000   0.002
  0.007   0.000  -0.007  -0.035   0.000   0.007   0.001   0.004  -0.001   0.001  -0.000  -0.001  -0.004  -0.013   0.000   0.000
  0.001   0.004   0.022  -0.007  -0.032  -0.001   0.014   0.003   0.005  -0.003  -0.018   0.007  -0.001  -0.000  -0.010  -0.000
 total augmentation occupancy for first ion, spin component:           2
  0.839   0.018   0.006   0.057  -0.027  -0.413  -0.024   0.016   0.015   0.010  -0.029  -0.003  -0.082   0.054   0.005  -0.028
  0.018   0.540  -0.185  -0.013   0.184  -0.029  -0.215   0.062   0.018  -0.051  -0.050  -0.021  -0.008   0.010   0.001  -0.005
  0.006  -0.185   0.799  -0.030   0.042   0.013   0.061  -0.340   0.004  -0.041  -0.039  -0.021   0.005   0.011   0.027   0.000
  0.057  -0.013  -0.030   0.845   0.006   0.016   0.017   0.005  -0.408  -0.006  -0.011  -0.028   0.045  -0.067   0.006   0.001
 -0.027   0.184   0.042   0.006   0.866   0.012  -0.049  -0.040  -0.005  -0.319   0.018   0.030   0.001   0.004  -0.038   0.000
 -0.413  -0.029   0.013   0.016   0.012   0.321   0.034  -0.031  -0.044  -0.026   0.011   0.004   0.063  -0.050  -0.007   0.015
 -0.024  -0.215   0.061   0.017  -0.049   0.034  -0.041  -0.111  -0.037   0.090  -0.025   0.007   0.018   0.006   0.018   0.002
  0.016   0.062  -0.340   0.005  -0.040  -0.031  -0.111   0.173  -0.020   0.059   0.010   0.013  -0.004  -0.008  -0.003  -0.001
  0.015   0.018   0.004  -0.408  -0.005  -0.044  -0.037  -0.020   0.333   0.004  -0.008   0.017  -0.044   0.060  -0.007  -0.001
  0.010  -0.051  -0.041  -0.006  -0.319  -0.026   0.090   0.059   0.004   0.134   0.019  -0.007  -0.009  -0.009   0.014  -0.000
 -0.029  -0.050  -0.039  -0.011   0.018   0.011  -0.025   0.010  -0.008   0.019   0.159   0.115   0.005   0.003   0.006   0.001
 -0.003  -0.021  -0.021  -0.028   0.030   0.004   0.007   0.013   0.017  -0.007   0.115  -0.055  -0.005  -0.003   0.022   0.000
 -0.082  -0.008   0.005   0.045   0.001   0.063   0.018  -0.004  -0.044  -0.009   0.005  -0.005   0.025  -0.012  -0.002   0.003
  0.054   0.010   0.011  -0.067   0.004  -0.050   0.006  -0.008   0.060  -0.009   0.003  -0.003  -0.012   0.026  -0.002  -0.002
  0.005   0.001   0.027   0.006  -0.038  -0.007   0.018  -0.003  -0.007   0.014   0.006   0.022  -0.002  -0.002   0.010  -0.000
 -0.028  -0.005   0.000   0.001   0.000   0.015   0.002  -0.001  -0.001  -0.000   0.001   0.000   0.003  -0.002  -0.000   0.001
  0.001   0.001  -0.006  -0.024  -0.001  -0.001  -0.001   0.003   0.013   0.001   0.000   0.001  -0.002   0.002  -0.000  -0.000
  0.001  -0.006   0.014  -0.007  -0.024  -0.001   0.002  -0.006   0.004   0.008  -0.004  -0.003  -0.000   0.001   0.002  -0.000


------------------------ aborting loop because EDIFF is reached ----------------------------------------


    CHARGE:  cpu time    0.03: real time    0.03
    FORLOC:  cpu time    0.00: real time    0.00
    FORNL :  cpu time    0.31: real time    0.31
    STRESS:  cpu time    0.31: real time    0.31
    FORCOR:  cpu time    0.03: real time    0.03
    FORHAR:  cpu time    0.00: real time    0.01
    MIXING:  cpu time    0.00: real time    0.00

  FORCE on cell =-STRESS in cart. coord.  units (eV):
  Direction    XX          YY          ZZ          XY          YZ          ZX
  --------------------------------------------------------------------------------------
  Alpha Z   427.96692   427.96692   427.96692
  Ewald  -52648.99096 43898.23699 45904.24698    -3.38030   -86.84455   -47.44993
  Hartree-46213.09988 48843.57891 49866.86015    12.29528   -46.90861   -26.73812
  E(xc)   -1148.43372 -1148.59185 -1148.67760     0.18616    -0.22071     0.16577
  Local   94648.27287-97046.44204************   -17.44728   118.77160    74.23387
  n-local   276.36833   274.33720   282.52422     0.52338     2.66901    -1.06548
  augment  1415.12375  1431.04455  1421.31120     1.62053     3.21898    -0.02122
  Kinetic  3251.78425  3320.88416  3268.45036     5.13667     8.50509    -3.62652
  Fock        0.00000     0.00000     0.00000     0.00000     0.00000     0.00000
  -------------------------------------------------------------------------------------
  Total       8.99155     1.01484    18.90778    -1.06556    -0.80918    -4.50164
  in kB      18.71091     2.11182    39.34602    -2.21736    -1.68385    -9.36766
  external pressure =       20.06 kB  Pullay stress =        0.00 kB


 VOLUME and BASIS-vectors are now :
 -----------------------------------------------------------------------------
  energy-cutoff  :      367.69
  volume of cell :      769.93
      direct lattice vectors                 reciprocal lattice vectors
    18.544599530  0.000000000  0.000000000     0.053924055  0.000000000  0.000000000
     0.000000000  4.453300000  0.000000000     0.000000000  0.224552579  0.000000000
     0.000000000  0.000000000  9.322899820     0.000000000  0.000000000  0.107262764

  length of vectors
    18.544599530  4.453300000  9.322899820     0.053924055  0.224552579  0.107262764


 FORCES acting on ions
    electron-ion (+dipol)            ewald-force                    non-local-force                 convergence-correction
 -----------------------------------------------------------------------------------------------
   0.157E+04 -.125E+02 -.569E+02   -.156E+04 0.124E+02 0.584E+02   -.785E+01 0.104E+01 0.932E+00   0.852E-02 0.351E-02 0.101E-01
   -.134E+04 0.185E+02 0.480E+02   0.134E+04 -.177E+02 -.475E+02   -.586E+00 -.728E+00 -.500E+00   0.422E-01 -.657E-01 0.346E-01
   -.147E+04 -.478E+01 0.255E+02   0.146E+04 0.433E+01 -.255E+02   0.530E+01 0.442E+00 0.695E-01   0.163E-01 -.378E-02 -.163E-01
   0.157E+04 0.125E+02 -.582E+02   -.156E+04 -.124E+02 0.598E+02   -.761E+01 -.101E+01 0.924E+00   0.601E-02 0.344E-02 -.179E-01
   0.339E+03 -.111E+02 -.779E+02   -.338E+03 0.111E+02 0.824E+02   -.175E+00 0.340E+00 -.762E-01   0.163E+00 -.119E-02 -.434E-02
   -.253E+03 -.163E+02 0.661E+02   0.254E+03 0.159E+02 -.695E+02   -.106E+00 0.693E+00 -.238E-02   0.166E+00 0.722E-02 0.849E-02
   -.270E+03 0.123E+02 0.743E+02   0.270E+03 -.121E+02 -.775E+02   0.361E-01 -.701E+00 0.377E-01   0.184E+00 -.365E-02 -.549E-02
   0.335E+03 0.996E+01 -.825E+02   -.335E+03 -.981E+01 0.872E+02   0.266E-01 -.430E+00 -.691E-01   0.177E+00 -.192E-03 -.457E-02
   -.864E+03 -.456E+02 -.153E+02   0.866E+03 0.446E+02 0.173E+02   -.142E+01 0.947E+00 -.195E+01   0.122E+00 -.238E-01 0.155E-01
   0.960E+03 -.937E+01 0.800E+02   -.962E+03 0.951E+01 -.847E+02   0.721E+00 0.283E+00 0.185E+00   0.116E+00 0.102E-02 -.204E-02
   0.958E+03 0.931E+01 0.814E+02   -.961E+03 -.944E+01 -.861E+02   0.778E+00 -.306E+00 0.275E+00   0.135E+00 -.243E-02 0.126E-01
   -.873E+03 0.111E+02 -.779E+02   0.874E+03 -.109E+02 0.787E+02   -.175E+01 -.201E+00 -.661E+00   0.116E+00 -.651E-02 -.243E-01
   0.128E+04 0.423E+01 -.216E+01   -.130E+04 -.407E+01 0.995E+01   0.145E+02 -.775E+00 -.829E+01   0.111E-01 0.109E-02 0.124E-02
   -.118E+04 0.122E+01 0.647E+02   0.120E+04 -.400E+01 -.729E+02   -.185E+02 0.276E+01 0.823E+01   0.442E-01 0.192E-01 -.297E-01
   -.124E+04 0.904E+01 -.108E+02   0.127E+04 -.133E+02 -.781E+00   -.205E+02 0.423E+01 0.116E+02   0.323E-01 -.497E-02 0.391E-01
   0.128E+04 -.440E+01 -.285E+01   -.129E+04 0.407E+01 0.103E+02   0.145E+02 0.900E+00 -.799E+01   0.118E-01 0.412E-03 0.168E-02
   0.293E+03 0.440E+02 0.252E+02   -.294E+03 -.529E+02 -.282E+02   0.119E+01 0.943E+01 0.350E+01   0.133E+00 0.151E-02 0.810E-04
   -.207E+03 0.425E+02 -.170E+02   0.206E+03 -.535E+02 0.173E+02   0.147E+01 0.115E+02 -.300E+00   0.140E+00 -.159E-02 -.242E-02
   -.223E+03 -.413E+02 -.192E+02   0.224E+03 0.504E+02 0.187E+02   -.357E+00 -.954E+01 0.356E+00   0.157E+00 -.678E-03 -.118E-03
   0.288E+03 -.435E+02 0.253E+02   -.290E+03 0.529E+02 -.283E+02   0.136E+01 -.994E+01 0.357E+01   0.151E+00 -.123E-02 0.229E-02
   -.727E+03 0.515E+02 0.400E+02   0.728E+03 -.573E+02 -.393E+02   -.343E+00 0.578E+01 -.599E+00   0.128E+00 0.222E-01 -.188E-01
   0.815E+03 0.470E+02 -.271E+02   -.816E+03 -.550E+02 0.291E+02   0.188E+01 0.771E+01 -.180E+01   0.966E-01 -.386E-02 0.472E-02
   0.813E+03 -.468E+02 -.273E+02   -.815E+03 0.550E+02 0.298E+02   0.139E+01 -.792E+01 -.233E+01   0.110E+00 0.509E-02 0.299E-03
   -.751E+03 -.543E+02 0.147E+02   0.748E+03 0.662E+02 -.153E+02   0.304E+01 -.119E+02 0.606E+00   0.134E+00 -.292E-01 0.400E-02
   0.129E+04 -.136E+03 0.324E+02   -.131E+04 0.164E+03 -.439E+02   0.139E+02 -.280E+02 0.114E+02   0.842E-02 0.738E-02 -.126E-01
   -.127E+04 -.123E+03 0.561E+01   0.129E+04 0.144E+03 0.592E+01   -.196E+02 -.209E+02 -.115E+02   -.459E-01 0.480E-01 -.316E-01
   -.119E+04 0.153E+03 -.713E+02   0.120E+04 -.180E+03 0.788E+02   -.163E+02 0.267E+02 -.752E+01   -.253E-01 0.349E-01 -.200E-01
   0.129E+04 0.136E+03 0.330E+02   -.131E+04 -.164E+03 -.448E+02   0.140E+02 0.280E+02 0.117E+02   0.860E-02 -.778E-02 0.784E-02
   0.290E+03 -.195E+03 0.421E+01   -.290E+03 0.237E+03 -.610E+01   0.314E+00 -.416E+02 0.156E+01   0.139E+00 0.198E-02 -.900E-03
   -.247E+03 -.184E+03 -.951E+01   0.251E+03 0.222E+03 0.123E+02   -.396E+01 -.383E+02 -.185E+01   0.141E+00 0.194E-04 -.109E-01
   -.234E+03 0.183E+03 -.219E+02   0.239E+03 -.222E+03 0.249E+02   -.391E+01 0.386E+02 -.190E+01   0.154E+00 0.351E-02 0.987E-02
   0.290E+03 0.194E+03 0.917E+01   -.290E+03 -.236E+03 -.111E+02   0.556E+00 0.418E+02 0.138E+01   0.146E+00 -.123E-02 0.290E-03
   -.719E+03 -.179E+03 -.262E+02   0.717E+03 0.215E+03 0.270E+02   0.142E+01 -.356E+02 -.859E+00   0.991E-01 0.547E-02 0.913E-02
   0.816E+03 -.192E+03 -.276E+01   -.817E+03 0.232E+03 0.571E+01   0.103E+01 -.394E+02 -.293E+01   0.103E+00 0.708E-02 0.515E-02
   0.816E+03 0.192E+03 -.534E+01   -.817E+03 -.232E+03 0.770E+01   0.578E+00 0.399E+02 -.239E+01   0.102E+00 -.850E-02 -.128E-01
   -.729E+03 0.181E+03 -.508E+01   0.725E+03 -.217E+03 0.105E+02   0.352E+01 0.361E+02 -.542E+01   0.122E+00 0.548E-02 -.239E-01
   -.125E+04 -.337E+02 0.215E+02   0.126E+04 0.649E+02 -.613E+02   -.667E+01 -.312E+02 0.397E+02   -.949E-01 0.434E-01 -.756E-01
   -.221E+03 0.379E+02 -.648E+02   0.224E+03 -.418E+02 0.709E+02   -.307E+01 0.374E+01 -.583E+01   -.142E-01 0.339E-02 -.417E-02
 -----------------------------------------------------------------------------------------------
   0.279E+02 0.175E+02 -.311E+02   -.114E-11 -.568E-13 0.000E+00   -.311E+02 -.175E+02 0.313E+02   0.324E+01 0.590E-01 -.152E+00
 
 
 POSITION                                       TOTAL-FORCE (eV/Angst)
 -----------------------------------------------------------------------------------
      5.71205      2.28454      1.12154        -0.634136      0.987727      2.408844
     12.94468      0.12312      3.50814         0.057217     -0.031729      0.025369
     12.76471      2.03359      8.15254        -0.019717     -0.006539     -0.004738
      5.71205      4.39541      5.78299        -0.214197     -0.897836      2.503519
      8.56025      2.28454      1.12154         0.406038      0.318860      4.504303
      9.98435      0.05789      3.53991         0.781716      0.244761     -3.426548
      9.98435      2.16876      8.20136        -0.243154     -0.488902     -3.218244
      8.56025      4.39541      5.78299         0.748361     -0.273154      4.640231
     11.49213      2.29719      1.35255         0.034347     -0.031500      0.041046
      7.13615      0.05789      3.53991        -1.520230      0.424003     -4.453263
      7.13615      2.16876      8.20136        -1.525994     -0.434206     -4.397033
     11.53194      4.37175      5.96816        -0.018624     -0.014515      0.035209
      5.71205      3.53325      2.64957        -0.114971     -0.611872     -0.502229
     12.82044      1.29149      2.05623        -0.020586      0.000265     -0.004947
     12.94558      0.88060      6.79902         0.009166     -0.004043     -0.013767
      5.71205      3.14670      7.31102        -0.169784      0.567964     -0.561629
      8.56025      3.53325      2.64957         0.086494      0.534993      0.557288
      9.98435      1.30660      2.01188         0.197869      0.528553     -0.027201
      9.98435      0.92005      6.67333         0.404560     -0.359974     -0.140797
      8.56025      3.14670      7.31102         0.155963     -0.461029      0.583854
     11.46804      3.59073      2.73816         0.024133      0.001419      0.011449
      7.13615      1.30660      2.01188         0.348491     -0.295342      0.180010
      7.13615      0.92005      6.67333         0.113861      0.293731      0.167523
     11.44799      3.12179      7.40891         0.011214      0.011707      0.003964
      5.71205      1.02916      4.32955        -0.314989     -0.266152     -0.089644
     13.03783      2.98520      0.38584         0.014419     -0.001192      0.019454
     12.88857      3.50110      5.03722        -0.018405      0.018315     -0.003948
      5.71205      1.19749      8.99100        -0.292709      0.265650     -0.054788
      8.56025      1.02916      4.32955        -0.000935      0.410883     -0.332029
      9.98435      3.25581      0.33190         0.445984      0.134482      0.979311
      9.98435      3.42414      4.99335         0.502094     -0.048299      1.070755
      8.56025      1.19749      8.99100         0.191363     -0.452825     -0.512794
     11.47907      0.98672      4.39098         0.003261     -0.014926     -0.001541
      7.13615      3.25581      0.33190         0.371783      0.861059      0.026250
      7.13615      3.42414      4.99335         0.295318     -0.802779     -0.045357
     11.39496      1.17948      9.09866         0.012314     -0.015872     -0.032223
     14.74267      0.38412      3.62177        -0.152230      0.073938     -0.148711
     15.12923     -0.10887      4.38512         0.044695     -0.165622      0.213051
 -----------------------------------------------------------------------------------
    total drift:                                0.109576     -0.010696      0.010264


--------------------------------------------------------------------------------------------------------



  FREE ENERGIE OF THE ION-ELECTRON SYSTEM (eV)
  ---------------------------------------------------
  free  energy   TOTEN  =      -251.88755364 eV

  energy  without entropy=     -251.88220045  energy(sigma->0) =     -251.88576924
 
 d Force = 0.5664095E-03[ 0.564E-03, 0.569E-03]  d Energy = 0.5864389E-03-0.200E-04
 d Force = 0.3041215E+00[ 0.304E+00, 0.304E+00]  d Ewald  = 0.3041208E+00 0.648E-06


--------------------------------------------------------------------------------------------------------


    POTLOK:  cpu time    0.04: real time    0.04


--------------------------------------------------------------------------------------------------------




--------------------------------------------------------------------------------------------------------


  
 reached required accuracy - stopping structural energy minimisation
     LOOP+:  cpu time    3.13: real time    4.13
    4ORBIT:  cpu time    0.00: real time    0.00

 total amount of memory used by VASP on root node    37554. kBytes
========================================================================

   base      :      30000. kBytes
   nonl-proj :       2284. kBytes
   fftplans  :        902. kBytes
   grid      :       2352. kBytes
   one-center:        155. kBytes
   wavefun   :       1861. kBytes
 
  
  
 General timing and accounting informations for this job:
 ========================================================
  
                  Total CPU time used (sec):      600.616
                            User time (sec):      597.575
                          System time (sec):        3.041
                         Elapsed time (sec):      699.697
  
                   Maximum memory used (kb):      106588.
                   Average memory used (kb):           0.
  
                          Minor page faults:        22853
                          Major page faults:            0
                 Voluntary context switches:        36018
