 vasp.5.3.3 18Dez12 (build May 12 2016 12:04:25) complex                        
  
 executed on             LinuxIFC date 2019.05.19  16:29:59
 running on   32 total cores
 distrk:  each k-point on   32 cores,    1 groups
 distr:  one band on NCORES_PER_BAND=   4 cores,    8 groups


--------------------------------------------------------------------------------------------------------


 INCAR:
 POTCAR:    PAW_PBE Mn 06Sep2000                  
 POTCAR:    PAW_PBE O 08Apr2002                   
 POTCAR:    PAW_PBE Mn 06Sep2000                  
  local pseudopotential read in
  partial core-charges read in
  partial kinetic energy density read in
  atomic valenz-charges read in
  non local Contribution for L=           2  read in
    real space projection operators read in
  non local Contribution for L=           2  read in
    real space projection operators read in
  non local Contribution for L=           0  read in
    real space projection operators read in
  non local Contribution for L=           0  read in
    real space projection operators read in
  non local Contribution for L=           1  read in
    real space projection operators read in
  non local Contribution for L=           1  read in
    real space projection operators read in
    PAW grid and wavefunctions read in
 
   number of l-projection  operators is LMAX  =           6
   number of lm-projection operators is LMMAX =          18
 
 POTCAR:    PAW_PBE O 08Apr2002                   
  local pseudopotential read in
  partial core-charges read in
  partial kinetic energy density read in
  kinetic energy density of atom read in
  atomic valenz-charges read in
  non local Contribution for L=           0  read in
    real space projection operators read in
  non local Contribution for L=           0  read in
    real space projection operators read in
  non local Contribution for L=           1  read in
    real space projection operators read in
  non local Contribution for L=           1  read in
    real space projection operators read in
    PAW grid and wavefunctions read in
 
   number of l-projection  operators is LMAX  =           4
   number of lm-projection operators is LMMAX =           8
 

 ----------------------------------------------------------------------------- 
|                                                                             |
|  ADVICE TO THIS USER RUNNING 'VASP/VAMP'   (HEAR YOUR MASTER'S VOICE ...):  |
|                                                                             |
|      You have a (more or less) 'large supercell' and for larger cells       |
|      it might be more efficient to use real space projection opertators     |
|      So try LREAL= Auto  in the INCAR   file.                               |
|      Mind: At the moment your POTCAR file does not contain real space       |
|       projectors, and has to be modified,  BUT if you                       |
|      want to do an extremely  accurate calculation you might also keep the  |
|      reciprocal projection scheme          (i.e. LREAL=.FALSE.)             |
|                                                                             |
 ----------------------------------------------------------------------------- 


 ----------------------------------------------------------------------------- 
|                                                                             |
|  ADVICE TO THIS USER RUNNING 'VASP/VAMP'   (HEAR YOUR MASTER'S VOICE ...):  |
|                                                                             |
|      You enforced a specific xc-type in the INCAR file,                     |
|      a different type was found on the POTCAR file                          |
|          I HOPE YOU KNOW, WHAT YOU ARE  DOING                               |
|                                                                             |
 ----------------------------------------------------------------------------- 

  PAW_PBE Mn 06Sep2000                  :
 energy of atom  1       EATOM= -416.7541
 kinetic energy error for atom=    0.0024 (will be added to EATOM!!)
  PAW_PBE O 08Apr2002                   :
 energy of atom  2       EATOM= -432.3788
 kinetic energy error for atom=    0.0208 (will be added to EATOM!!)
 
 
 POSCAR: (Mn O2)16  (P1) ~ POSCAR_9 0 0 1  surfac
  positions in direct lattice
  velocities in cartesian coordinates
 exchange correlation table for  LEXCH =       14
   RHO(1)=    0.500       N(1)  =     2000
   RHO(2)=  100.500       N(2)  =     4000
 


--------------------------------------------------------------------------------------------------------


 ion  position               nearest neighbor table
   1  0.000  0.103  0.000-  41 1.86  47 1.95  47 1.95  15 2.94  15 2.95
   2  0.000  0.500  0.000-  19 1.86  42 1.86  21 1.95  48 1.95  48 1.95  21 1.95  16 2.94   3 2.94
                            16 2.95   3 2.95
   3  0.500  0.450  0.875-  21 1.86  23 1.86  19 1.95  17 1.95  19 1.95  17 1.95   2 2.94   5 2.94
                             2 2.95   5 2.95
   4  0.497  0.849  0.879-  22 1.59  20 1.79  20 1.80  18 1.96  18 1.97  24 2.07   6 3.00   6 3.01

   5  0.000  0.401  0.750-  17 1.86  27 1.86  23 1.95  29 1.95  23 1.95  29 1.95   7 2.94   3 2.94
                             7 2.95   3 2.95
   6  0.999  0.797  0.752-  24 1.86  24 1.86  18 1.87  30 1.91  30 1.92  28 1.92   8 2.91   8 2.92
                             4 3.00   4 3.01
   7  0.500  0.351  0.625-  29 1.86  31 1.86  27 1.95  25 1.95  27 1.95  25 1.95   5 2.94   9 2.94
                             5 2.95   9 2.95
   8  0.500  0.749  0.625-  26 1.90  28 1.90  28 1.90  26 1.90  30 1.93  32 1.93   6 2.91   6 2.92
                            10 2.93  10 2.95
   9  0.000  0.301  0.500-  25 1.86  35 1.86  37 1.95  31 1.95  37 1.95  31 1.95  11 2.94   7 2.94
                            11 2.95   7 2.95
  10  0.000  0.699  0.500-  32 1.90  38 1.90  32 1.90  38 1.91  26 1.94  36 1.94   8 2.93  12 2.94
                             8 2.95  12 2.96
  11  0.500  0.252  0.375-  39 1.86  37 1.86  35 1.95  33 1.95  35 1.95  33 1.95   9 2.94  13 2.94
                             9 2.95  13 2.95
  12  0.500  0.649  0.372-  34 1.90  36 1.90  34 1.90  36 1.91  38 1.93  40 1.95  10 2.94  14 2.95
                            10 2.96  14 2.96
  13  0.000  0.202  0.250-  33 1.86  43 1.86  45 1.95  39 1.95  45 1.95  39 1.95  15 2.94  11 2.94
                            15 2.95  11 2.95
  14  0.000  0.599  0.250-  44 1.86  40 1.89  40 1.89  46 1.95  34 1.95  46 1.95  16 2.94  12 2.95
                            16 2.95  12 2.96
  15  0.500  0.152  0.125-  45 1.86  47 1.86  43 1.95  41 1.95  43 1.95  41 1.95  13 2.94   1 2.94
                            13 2.95   1 2.95
  16  0.500  0.550  0.125-  48 1.86  46 1.86  42 1.95  44 1.95  42 1.95  44 1.95   2 2.94  14 2.94
                             2 2.95  14 2.95
  17  0.005  0.438  0.708-   5 1.86   3 1.95   3 1.95
  18  0.002  0.835  0.712-   6 1.87   4 1.96   4 1.97
  19  0.995  0.462  0.042-   2 1.86   3 1.95   3 1.95
  20  0.990  0.849  0.032-   4 1.79   4 1.80
  21  0.505  0.488  0.833-   3 1.86   2 1.95   2 1.95
  22  0.500  0.878  0.789-   4 1.59
  23  0.495  0.413  0.917-   3 1.86   5 1.95   5 1.95
  24  0.492  0.806  0.908-   6 1.86   6 1.86   4 2.07
  25  0.005  0.339  0.458-   9 1.86   7 1.95   7 1.95
  26  0.006  0.738  0.463-   8 1.90   8 1.90  10 1.94
  27  0.995  0.363  0.792-   5 1.86   7 1.95   7 1.95
  28  0.994  0.758  0.789-   8 1.90   8 1.90   6 1.92
  29  0.505  0.389  0.583-   7 1.86   5 1.95   5 1.95
  30  0.505  0.788  0.586-   6 1.91   6 1.92   8 1.93
  31  0.495  0.313  0.667-   7 1.86   9 1.95   9 1.95
  32  0.494  0.709  0.662-  10 1.90  10 1.90   8 1.93
  33  0.005  0.240  0.208-  13 1.86  11 1.95  11 1.95
  34  0.006  0.639  0.210-  12 1.90  12 1.90  14 1.95
  35  0.995  0.264  0.542-   9 1.86  11 1.95  11 1.95
  36  0.994  0.660  0.534-  12 1.90  12 1.91  10 1.94
  37  0.505  0.289  0.333-  11 1.86   9 1.95   9 1.95
  38  0.506  0.689  0.338-  10 1.90  10 1.91  12 1.93
  39  0.495  0.214  0.417-  11 1.86  13 1.95  13 1.95
  40  0.494  0.610  0.409-  14 1.89  14 1.89  12 1.95
  41  0.005  0.140  0.958-   1 1.86  15 1.95  15 1.95
  42  0.005  0.538  0.958-   2 1.86  16 1.95  16 1.95
  43  0.995  0.164  0.292-  13 1.86  15 1.95  15 1.95
  44  0.995  0.562  0.292-  14 1.86  16 1.95  16 1.95
  45  0.505  0.190  0.083-  15 1.86  13 1.95  13 1.95
  46  0.505  0.587  0.083-  16 1.86  14 1.95  14 1.95
  47  0.495  0.115  0.167-  15 1.86   1 1.95   1 1.95
  48  0.495  0.512  0.167-  16 1.86   2 1.95   2 1.95
 
  LATTYP: Found a simple monoclinic cell.
 ALAT       =     7.7917998176
 B/A-ratio  =     6.2445392770
 C/A-ratio  =     1.8919841396
 COS(beta)  =    -0.9840432201
  
  Lattice vectors:
  
 A1 = (  -2.9592071200,   0.0000000000,  -7.2079981700)
 A2 = (   0.0000000000, -48.6562000000,   0.0000000000)
 A3 = (   3.0829342400,   0.0000000000,  14.4159963400)


Analysis of symmetry for initial positions (statically):
=====================================================================
 Subroutine PRICEL returns:
 Original cell was already a primitive cell.
 

 Routine SETGRP: Setting up the symmetry group for a 
 simple monoclinic supercell.


 Subroutine GETGRP returns: Found  1 space group operations
 (whereof  1 operations were pure point group operations)
 out of a pool of  4 trial point group operations.


The static configuration has the point symmetry C_1 .


Analysis of symmetry for dynamics (positions and initial velocities):
=====================================================================
 Subroutine PRICEL returns:
 Original cell was already a primitive cell.
 

 Routine SETGRP: Setting up the symmetry group for a 
 simple monoclinic supercell.


 Subroutine GETGRP returns: Found  1 space group operations
 (whereof  1 operations were pure point group operations)
 out of a pool of  4 trial point group operations.


The dynamic configuration has the point symmetry C_1 .


Analysis of constrained symmetry for selective dynamics:
=====================================================================
 Subroutine PRICEL returns:
 Original cell was already a primitive cell.
 

 Routine SETGRP: Setting up the symmetry group for a 
 simple monoclinic supercell.


 Subroutine GETGRP returns: Found  1 space group operations
 (whereof  1 operations were pure point group operations)
 out of a pool of  4 trial point group operations.


The constrained configuration has the point symmetry C_1 .


Analysis of magnetic symmetry:
=====================================================================

 Subroutine MAGSYM returns: Found  1 space group operations
 (whereof  1 operations were pure point group operations)
 out of a pool of  1 trial space group operations
 (whereof  1 operations were pure point group operations)
 and found also     1 'primitive' translations


The magnetic configuration has the point symmetry C_1 .


 irot  :   1
 --------------------------------------------------------------------
 isymop:   1   0   0
           0   1   0
           0   0   1

 gtrans:     0.0000000     0.0000000     0.0000000

 ptrans:     0.0000000     0.0000000     0.0000000
 rotmap:
 (   1->   1)  (   2->   2)  (   3->   3)  (   4->   4)  (   5->   5) 
 (   6->   6)  (   7->   7)  (   8->   8)  (   9->   9)  (  10->  10) 
 (  11->  11)  (  12->  12)  (  13->  13)  (  14->  14)  (  15->  15) 
 (  16->  16)  (  17->  17)  (  18->  18)  (  19->  19)  (  20->  20) 
 (  21->  21)  (  22->  22)  (  23->  23)  (  24->  24)  (  25->  25) 
 (  26->  26)  (  27->  27)  (  28->  28)  (  29->  29)  (  30->  30) 
 (  31->  31)  (  32->  32)  (  33->  33)  (  34->  34)  (  35->  35) 
 (  36->  36)  (  37->  37)  (  38->  38)  (  39->  39)  (  40->  40) 
 (  41->  41)  (  42->  42)  (  43->  43)  (  44->  44)  (  45->  45) 
 (  46->  46)  (  47->  47)  (  48->  48) 
 
 
 KPOINTS: Automatic mesh                          

Automatic generation of k-mesh.
Space group operators:
 irot       det(A)        alpha          n_x          n_y          n_z        tau_x        tau_y        tau_z
    1     1.000000     0.000000     1.000000     0.000000     0.000000     0.000000     0.000000     0.000000
 
 Subroutine IBZKPT returns following result:
 ===========================================
 
 Found     19 irreducible k-points:
 
 Following reciprocal coordinates:
            Coordinates               Weight
  0.000000  0.000000  0.000000      1.000000
  0.111111  0.000000 -0.000000      2.000000
  0.222222  0.000000 -0.000000      2.000000
  0.333333  0.000000 -0.000000      2.000000
  0.444444  0.000000 -0.000000      2.000000
  0.000000  0.000000  0.250000      2.000000
  0.111111  0.000000  0.250000      2.000000
  0.222222  0.000000  0.250000      2.000000
  0.333333  0.000000  0.250000      2.000000
  0.444444  0.000000  0.250000      2.000000
 -0.444444  0.000000  0.250000      2.000000
 -0.333333  0.000000  0.250000      2.000000
 -0.222222  0.000000  0.250000      2.000000
 -0.111111  0.000000  0.250000      2.000000
  0.000000  0.000000  0.500000      1.000000
  0.111111  0.000000  0.500000      2.000000
  0.222222  0.000000  0.500000      2.000000
  0.333333  0.000000  0.500000      2.000000
  0.444444  0.000000  0.500000      2.000000
 
 Following cartesian coordinates:
            Coordinates               Weight
  0.000000  0.000000  0.000000      1.000000
  0.039186  0.000000 -0.000673      2.000000
  0.078372  0.000000 -0.001345      2.000000
  0.117558  0.000000 -0.002018      2.000000
  0.156744  0.000000 -0.002691      2.000000
  0.000000  0.000000  0.034684      2.000000
  0.039186  0.000000  0.034011      2.000000
  0.078372  0.000000  0.033338      2.000000
  0.117558  0.000000  0.032666      2.000000
  0.156744  0.000000  0.031993      2.000000
 -0.156744  0.000000  0.037374      2.000000
 -0.117558  0.000000  0.036702      2.000000
 -0.078372  0.000000  0.036029      2.000000
 -0.039186  0.000000  0.035356      2.000000
  0.000000  0.000000  0.069367      1.000000
  0.039186  0.000000  0.068695      2.000000
  0.078372  0.000000  0.068022      2.000000
  0.117558  0.000000  0.067349      2.000000
  0.156744  0.000000  0.066677      2.000000
 
 TETIRR: Found    106 inequivalent tetrahedra from      216


--------------------------------------------------------------------------------------------------------




 Dimension of arrays:
   k-points           NKPTS =     19   k-points in BZ     NKDIM =     19   number of bands    NBANDS=    184
   number of dos      NEDOS =    301   number of ions     NIONS =     48
   non local maximal  LDIM  =      6   non local SUM 2l+1 LMDIM =     18
   total plane-waves  NPLWV = 179200
   max r-space proj   IRMAX =      1   max aug-charges    IRDMAX=   6824
   dimension x,y,z NGX =    16 NGY =  280 NGZ =   40
   dimension x,y,z NGXF=    32 NGYF=  560 NGZF=   80
   support grid    NGXF=    32 NGYF=  560 NGZF=   80
   ions per type =              16  32
 NGX,Y,Z   is equivalent  to a cutoff of   9.38,  9.57,  9.22 a.u.
 NGXF,Y,Z  is equivalent  to a cutoff of  18.76, 19.13, 18.45 a.u.


 I would recommend the setting:
   dimension x,y,z NGX =    16 NGY =  271 NGZ =   40
 SYSTEM =  (Mn O2)16  (P1) ~ POSCAR_9 0 0 1  surfa 
 POSCAR =  (Mn O2)16  (P1) ~ POSCAR_9 0 0 1  surfac

 Startparameter for this run:
   NWRITE =      1    write-flag & timer
   PREC   = normal    normal or accurate (medium, high low for compatibility)
   ISTART =      0    job   : 0-new  1-cont  2-samecut
   ICHARG =      2    charge: 1-file 2-atom 10-const
   ISPIN  =      2    spin polarized calculation?
   LNONCOLLINEAR =      F non collinear calculations
   LSORBIT =      F    spin-orbit coupling
   INIWAV =      1    electr: 0-lowe 1-rand  2-diag
   LASPH  =      F    aspherical Exc in radial PAW
   METAGGA=      F    non-selfconsistent MetaGGA calc.

 Electronic Relaxation 1
   ENCUT  =  520.0 eV  38.22 Ry    6.18 a.u.   5.27 90.47 13.40*2*pi/ulx,y,z
   ENINI  =  520.0     initial cutoff
   ENAUG  =  605.4 eV  augmentation charge cutoff
   NELM   =     60;   NELMIN=  2; NELMDL= -5     # of ELM steps 
   EDIFF  = 0.1E-03   stopping-criterion for ELM
   LREAL  =      F    real-space projection
   NLSPLINE    = F    spline interpolate recip. space projectors
   LCOMPAT=      F    compatible to vasp.4.4
   GGA_COMPAT  = T    GGA compatible to vasp.4.4-vasp.4.6
   LMAXPAW     = -100 max onsite density
   LMAXMIX     =    2 max onsite mixed and CHGCAR
   VOSKOWN=      1    Vosko Wilk Nusair interpolation
   ROPT   =    0.00000   0.00000
 Ionic relaxation
   EDIFFG = 0.1E-02   stopping-criterion for IOM
   NSW    =      0    number of steps for IOM
   NBLOCK =      1;   KBLOCK =      1    inner block; outer block 
   IBRION =     -1    ionic relax: 0-MD 1-quasi-New 2-CG
   NFREE  =      0    steps in history (QN), initial steepest desc. (CG)
   ISIF   =      2    stress and relaxation
   IWAVPR =     10    prediction:  0-non 1-charg 2-wave 3-comb
   ISYM   =      2    0-nonsym 1-usesym 2-fastsym
   LCORR  =      T    Harris-Foulkes like correction to forces

   POTIM  = 0.5000    time-step for ionic-motion
   TEIN   =    0.0    initial temperature
   TEBEG  =    0.0;   TEEND  =   0.0 temperature during run
   SMASS  =  -3.00    Nose mass-parameter (am)
   estimated Nose-frequenzy (Omega)   =  0.10E-29 period in steps =****** mass=  -0.184E-27a.u.
   SCALEE = 1.0000    scale energy and forces
   NPACO  =    256;   APACO  = 16.0  distance and # of slots for P.C.
   PSTRESS=    0.0 pullay stress

  Mass of Ions in am
   POMASS =  54.94 16.00
  Ionic Valenz
   ZVAL   =   7.00  6.00
  Atomic Wigner-Seitz radii
   RWIGS  =  -1.00 -1.00
  virtual crystal weights 
   VCA    =   1.00  1.00
   NELECT =     304.0000    total number of electrons
   NUPDOWN=      -1.0000    fix difference up-down

 DOS related values:
   EMIN   =  10.00;   EMAX   =-10.00  energy-range for DOS
   EFERMI =   0.00
   ISMEAR =    -5;   SIGMA  =   0.20  broadening in eV -4-tet -1-fermi 0-gaus

 Electronic relaxation 2 (details)
   IALGO  =     38    algorithm
   LDIAG  =      T    sub-space diagonalisation (order eigenvalues)
   LSUBROT=      T    optimize rotation matrix (better conditioning)
   TURBO    =      0    0=normal 1=particle mesh
   IRESTART =      0    0=no restart 2=restart with 2 vectors
   NREBOOT  =      0    no. of reboots
   NMIN     =      0    reboot dimension
   EREF     =   0.00    reference energy to select bands
   IMIX   =      4    mixing-type and parameters
     AMIX     =   0.40;   BMIX     =  1.00
     AMIX_MAG =   1.60;   BMIX_MAG =  1.00
     AMIN     =   0.10
     WC   =   100.;   INIMIX=   1;  MIXPRE=   1;  MAXMIX= -45

 Intra band minimization:
   WEIMIN = 0.0000     energy-eigenvalue tresh-hold
   EBREAK =  0.14E-06  absolut break condition
   DEPER  =   0.30     relativ break condition  

   TIME   =   0.40     timestep for ELM

  volume/ion in A,a.u.               =      20.72       139.81
  Fermi-wavevector in a.u.,A,eV,Ry     =   1.102824  2.084035 16.547688  1.216221
  Thomas-Fermi vector in A             =   2.239273
 
 Write flags
   LWAVE  =      F    write WAVECAR
   LCHARG =      T    write CHGCAR
   LVTOT  =      F    write LOCPOT, total local potential
   LVHAR  =      F    write LOCPOT, Hartree potential only
   LELF   =      F    write electronic localiz. function (ELF)
   LORBIT =      0    0 simple, 1 ext, 2 COOP (PROOUT)


 Dipole corrections
   LMONO  =      F    monopole corrections only (constant potential shift)
   LDIPOL =      F    correct potential (dipole corrections)
   IDIPOL =      0    1-x, 2-y, 3-z, 4-all directions 
   EPSILON=  1.0000000 bulk dielectric constant

 Exchange correlation treatment:
   GGA     =    PS    GGA type
   LEXCH   =    14    internal setting for exchange type
   VOSKOWN=      1    Vosko Wilk Nusair interpolation
   LHFCALC =     F    Hartree Fock is set to
   LHFONE  =     F    Hartree Fock one center treatment
   AEXX    =    0.0000 exact exchange contribution

 Linear response parameters
   LEPSILON=     F    determine dielectric tensor
   LRPA    =     F    only Hartree local field effects (RPA)
   LNABLA  =     F    use nabla operator in PAW spheres
   LVEL    =     F    velocity operator in full k-point grid
   LINTERFAST=   F  fast interpolation
   KINTER  =     0    interpolate to denser k-point grid
   CSHIFT  =0.1000    complex shift for real part using Kramers Kronig
   OMEGAMAX=  -1.0    maximum frequency
   DEG_THRESHOLD= 0.2000000E-02 threshold for treating states as degnerate
   RTIME   =    0.100 relaxation time in fs

 Orbital magnetization related:
   ORBITALMAG=     F  switch on orbital magnetization
   LCHIMAG   =     F  perturbation theory with respect to B field
   DQ        =  0.001000  dq finite difference perturbation B field



--------------------------------------------------------------------------------------------------------


 Static calculation
 charge density and potential will be updated during run
 spin polarized calculation
 Variant of blocked Davidson
 Davidson routine will perform the subspace rotation
 perform sub-space diagonalisation
    after iterative eigenvector-optimisation
 modified Broyden-mixing scheme, WC =      100.0
 initial mixing is a Kerker type mixing with AMIX =  0.4000 and BMIX =      1.0000
 Hartree-type preconditioning will be used
 using additional bands           32
 reciprocal scheme for non local part
 use partial core corrections
 calculate Harris-corrections to forces 
   (improved forces if not selfconsistent)
 use gradient corrections 
 use of overlap-Matrix (Vanderbilt PP)
 Fermi weights with tetrahedron method with Bloechl corrections


--------------------------------------------------------------------------------------------------------


  energy-cutoff  :      520.00
  volume of cell :      994.44
      direct lattice vectors                 reciprocal lattice vectors
     2.835480000  0.000000000  0.000000000     0.352673974  0.000000000 -0.006053738
     0.000000000 48.656200000  0.000000000     0.000000000  0.020552365  0.000000000
     0.123727120  0.000000000  7.207998170     0.000000000  0.000000000  0.138734774

  length of vectors
     2.835480000 48.656200000  7.209059996     0.352725927  0.020552365  0.138734774


 
 k-points in units of 2pi/SCALE and weight: Automatic mesh                          
   0.00000000  0.00000000  0.00000000       0.028
   0.03918600  0.00000000 -0.00067264       0.056
   0.07837199  0.00000000 -0.00134528       0.056
   0.11755799  0.00000000 -0.00201791       0.056
   0.15674399  0.00000000 -0.00269055       0.056
   0.00000000  0.00000000  0.03468369       0.056
   0.03918600  0.00000000  0.03401106       0.056
   0.07837199  0.00000000  0.03333842       0.056
   0.11755799  0.00000000  0.03266578       0.056
   0.15674399  0.00000000  0.03199314       0.056
  -0.15674399  0.00000000  0.03737424       0.056
  -0.11755799  0.00000000  0.03670161       0.056
  -0.07837199  0.00000000  0.03602897       0.056
  -0.03918600  0.00000000  0.03535633       0.056
   0.00000000  0.00000000  0.06936739       0.028
   0.03918600  0.00000000  0.06869475       0.056
   0.07837199  0.00000000  0.06802211       0.056
   0.11755799  0.00000000  0.06734947       0.056
   0.15674399  0.00000000  0.06667684       0.056
 
 k-points in reciprocal lattice and weights: Automatic mesh                          
   0.00000000  0.00000000  0.00000000       0.028
   0.11111111  0.00000000 -0.00000000       0.056
   0.22222222  0.00000000 -0.00000000       0.056
   0.33333333  0.00000000 -0.00000000       0.056
   0.44444444  0.00000000 -0.00000000       0.056
   0.00000000  0.00000000  0.25000000       0.056
   0.11111111  0.00000000  0.25000000       0.056
   0.22222222  0.00000000  0.25000000       0.056
   0.33333333  0.00000000  0.25000000       0.056
   0.44444444  0.00000000  0.25000000       0.056
  -0.44444444  0.00000000  0.25000000       0.056
  -0.33333333  0.00000000  0.25000000       0.056
  -0.22222222  0.00000000  0.25000000       0.056
  -0.11111111  0.00000000  0.25000000       0.056
   0.00000000  0.00000000  0.50000000       0.028
   0.11111111  0.00000000  0.50000000       0.056
   0.22222222  0.00000000  0.50000000       0.056
   0.33333333  0.00000000  0.50000000       0.056
   0.44444444  0.00000000  0.50000000       0.056
 
 position of ions in fractional coordinates (direct lattice) 
   0.00000000  0.10276183  0.00000000
   0.00000000  0.50000000  0.00000000
   0.50000000  0.45034523  0.87500000
   0.49725021  0.84859948  0.87879070
   0.00000000  0.40069046  0.75000000
   0.99880664  0.79745602  0.75198029
   0.50000000  0.35103569  0.62500000
   0.50004632  0.74866737  0.62522540
   0.00000000  0.30138091  0.50000000
   0.00008149  0.69907928  0.50007746
   0.50000000  0.25172614  0.37500000
   0.50025221  0.64940797  0.37162340
   0.00000000  0.20207137  0.25000000
   0.00000000  0.59930954  0.25000000
   0.50000000  0.15241660  0.12500000
   0.50000000  0.54965477  0.12500000
   0.00545778  0.43834126  0.70806513
   0.00225556  0.83547331  0.71195863
   0.99454222  0.46234920  0.04193487
   0.99010108  0.84919120  0.03162472
   0.50545772  0.48799603  0.83306514
   0.50029331  0.87847797  0.78897325
   0.49454228  0.41269442  0.91693486
   0.49248364  0.80634249  0.90844738
   0.00545778  0.33903171  0.45806513
   0.00600551  0.73849448  0.46331228
   0.99454222  0.36303966  0.79193487
   0.99393091  0.75832966  0.78851260
   0.50545772  0.38868649  0.58306514
   0.50490339  0.78785599  0.58556131
   0.49454228  0.31338488  0.66693486
   0.49414006  0.70928973  0.66188917
   0.00545778  0.23972217  0.20806513
   0.00615996  0.63895587  0.21047518
   0.99454222  0.26373011  0.54193487
   0.99430763  0.65950007  0.53440445
   0.50545772  0.28937695  0.33306514
   0.50597806  0.68876878  0.33801193
   0.49454228  0.21407534  0.41693486
   0.49399928  0.60972587  0.40893411
   0.00545778  0.14041263  0.95806513
   0.00545778  0.53765080  0.95806513
   0.99454222  0.16442057  0.29193487
   0.99454222  0.56165874  0.29193487
   0.50545772  0.19006740  0.08306514
   0.50545772  0.58730558  0.08306514
   0.49454228  0.11476579  0.16693486
   0.49454228  0.51200397  0.16693486
 
 position of ions in cartesian coordinates  (Angst):
   0.00000000  5.00000015  0.00000000
   0.00000000 24.32810000  0.00000000
   1.52600123 21.91208758  6.30699840
   1.51867328 41.28962580  6.33432173
   0.09279534 19.49607516  5.40599863
   2.92513659 38.80117949  5.42027255
   1.49506945 17.08006274  4.50499886
   1.49522867 36.42730934  4.50662350
   0.06186356 14.66404983  3.60399908
   0.06210421 34.01454119  3.60455743
   1.46413767 12.24803741  2.70299931
   1.46443504 31.59772406  2.67866077
   0.03093178  9.83202499  1.80199954
   0.03093178 29.16012484  1.80199954
   1.43320589  7.41601257  0.90099977
   1.43320589 26.74411242  0.90099977
   0.10308229 21.32802001  5.10373216
   0.09448418 40.65095655  5.13179650
   2.82519305 22.49615515  0.30226647
   2.81132466 41.31841682  0.22795092
   1.53628801 23.74403243  6.00473200
   1.51618906 42.74339967  5.68691774
   1.51571445 20.08014224  6.60926479
   1.50882708 39.23356130  6.54808704
   0.07215051 16.49599469  3.30173262
   0.07435280 35.93233492  3.33955410
   2.91798839 17.66413030  5.70826509
   2.91583161 36.89743965  5.68359737
   1.50535623 18.91200759  4.20273246
   1.50409328 38.33407840  4.22072484
   1.48478267 15.24811740  4.80726525
   1.48301790 34.51134310  4.77089590
   0.04121873 11.66396985  1.49973308
   0.04350793 31.08916449  1.51710472
   2.88705661 12.83210498  3.90626555
   2.88545971 32.08876753  3.85198627
   1.47442445 14.07998275  2.40073292
   1.47651190 33.51287175  2.43638938
   1.45385089 10.41609256  3.00526571
   1.45132131 29.66694387  2.94759634
   0.13401407  6.83194501  6.90573170
   0.13401407 26.16004485  6.90573170
   2.85612483  8.00008014  2.10426601
   2.85612483 27.32817999  2.10426601
   1.44349267  9.24795743  0.59873338
   1.44349267 28.57605776  0.59873338
   1.42291911  5.58406723  1.20326617
   1.42291911 24.91216757  1.20326617
 


--------------------------------------------------------------------------------------------------------


 k-point  1 :   0.0000 0.0000 0.0000  plane waves:   26859
 k-point  2 :   0.1111 0.0000-0.0000  plane waves:   26867
 k-point  3 :   0.2222 0.0000-0.0000  plane waves:   26794
 k-point  4 :   0.3333 0.0000-0.0000  plane waves:   26756
 k-point  5 :   0.4444 0.0000-0.0000  plane waves:   26738
 k-point  6 :   0.0000 0.0000 0.2500  plane waves:   26825
 k-point  7 :   0.1111 0.0000 0.2500  plane waves:   26824
 k-point  8 :   0.2222 0.0000 0.2500  plane waves:   26708
 k-point  9 :   0.3333 0.0000 0.2500  plane waves:   26749
 k-point 10 :   0.4444 0.0000 0.2500  plane waves:   26832
 k-point 11 :  -0.4444 0.0000 0.2500  plane waves:   26766
 k-point 12 :  -0.3333 0.0000 0.2500  plane waves:   26756
 k-point 13 :  -0.2222 0.0000 0.2500  plane waves:   26767
 k-point 14 :  -0.1111 0.0000 0.2500  plane waves:   26783
 k-point 15 :   0.0000 0.0000 0.5000  plane waves:   26778
 k-point 16 :   0.1111 0.0000 0.5000  plane waves:   26771
 k-point 17 :   0.2222 0.0000 0.5000  plane waves:   26702
 k-point 18 :   0.3333 0.0000 0.5000  plane waves:   26718
 k-point 19 :   0.4444 0.0000 0.5000  plane waves:   26800

 maximum and minimum number of plane-waves per node :      6748     6647

 maximum number of plane-waves:     26867
 maximum index in each direction: 
   IXMAX=    5   IYMAX=   90   IZMAX=   13
   IXMIN=   -5   IYMIN=  -90   IZMIN=  -13

 WARNING: aliasing errors must be expected set NGX to  22 to avoid them
 WARNING: aliasing errors must be expected set NGY to 362 to avoid them
 WARNING: aliasing errors must be expected set NGZ to  54 to avoid them
 aliasing errors are usually negligible using standard VASP settings
 and one can safely disregard these warnings

 parallel 3D FFT for wavefunctions:
    minimum data exchange during FFTs selected (reduces bandwidth)
 parallel 3D FFT for charge:
    minimum data exchange during FFTs selected (reduces bandwidth)


 total amount of memory used by VASP on root node   178269. kBytes
========================================================================

   base      :      30000. kBytes
   nonl-proj :      41882. kBytes
   fftplans  :       2975. kBytes
   grid      :       7277. kBytes
   one-center:        373. kBytes
   wavefun   :      95762. kBytes
 
 Broyden mixing: mesh for mixing (old mesh)
   NGX = 11   NGY =181   NGZ = 27
  (NGX  = 32   NGY  =560   NGZ  = 80)
  gives a total of  53757 points

 initial charge density was supplied:
 charge density of overlapping atoms calculated
 number of electron     304.0000000 magnetization       0.0000000
 keeping initial charge density in first step


--------------------------------------------------------------------------------------------------------


 Maximum index for augmentation-charges          423 (set IRDMAX)


--------------------------------------------------------------------------------------------------------


 First call to EWALD:  gamma=   0.178
 Maximum number of real-space cells 8x 1x 4
 Maximum number of reciprocal cells 1x11x 2

 FEWALD executed in parallel
    FEWALD:  cpu time    0.00: real time    0.00


----------------------------------------- Iteration    1(   1)  ---------------------------------------


    POTLOK:  cpu time    0.09: real time    0.09
    SETDIJ:  cpu time    0.01: real time    0.01
     EDDAV:  cpu time   37.38: real time   37.41
 BZINTS: Fermi energy: 17.234184;304.000000 electrons
         Band energy:2299.453285;  BLOECHL correction: -0.112335
       DOS:  cpu time    0.04: real time    0.05
    --------------------------------------------
      LOOP:  cpu time   37.53: real time   37.64

 eigenvalue-minimisations  : 14168
 total energy-change (2. order) : 0.4700434E+04  (-0.1232078E+05)
 number of electron     304.0000000 magnetization       0.0000000
 augmentation part      304.0000000 magnetization       0.0000000

 Free energy of the ion-electron system (eV)
  ---------------------------------------------------
  alpha Z        PSCENC =       612.30704137
  Ewald energy   TEWEN  =     66542.54908959
  -1/2 Hartree   DENC   =    -86117.37037651
  -exchange  EXHF       =         0.00000000
  -V(xc)+E(xc)   XCENC  =       736.09838672
  PAW double counting   =     17543.03332174   -17357.91843947
  entropy T*S    EENTRO =         0.00000000
  eigenvalues    EBANDS =      2299.45328477
  atomic energy  EATOM  =     20442.28171833
  ---------------------------------------------------
  free energy    TOTEN  =      4700.43402654 eV

  energy without entropy =     4700.43402654  energy(sigma->0) =     4700.43402654


--------------------------------------------------------------------------------------------------------




----------------------------------------- Iteration    1(   2)  ---------------------------------------


     EDDAV:  cpu time   37.56: real time   37.59
 BZINTS: Fermi energy:  4.882437;304.000000 electrons
         Band energy:***********;  BLOECHL correction: -0.024282
       DOS:  cpu time    0.04: real time    0.04
    --------------------------------------------
      LOOP:  cpu time   37.60: real time   37.71

 eigenvalue-minimisations  : 14272
 total energy-change (2. order) :-0.3686666E+04  (-0.3530917E+04)
 number of electron     304.0000000 magnetization       0.0000000
 augmentation part      304.0000000 magnetization       0.0000000

 Free energy of the ion-electron system (eV)
  ---------------------------------------------------
  alpha Z        PSCENC =       612.30704137
  Ewald energy   TEWEN  =     66542.54908959
  -1/2 Hartree   DENC   =    -86117.37037651
  -exchange  EXHF       =         0.00000000
  -V(xc)+E(xc)   XCENC  =       736.09838672
  PAW double counting   =     17543.03332174   -17357.91843947
  entropy T*S    EENTRO =         0.00000000
  eigenvalues    EBANDS =     -1387.21251204
  atomic energy  EATOM  =     20442.28171833
  ---------------------------------------------------
  free energy    TOTEN  =      1013.76822973 eV

  energy without entropy =     1013.76822973  energy(sigma->0) =     1013.76822973


--------------------------------------------------------------------------------------------------------




----------------------------------------- Iteration    1(   3)  ---------------------------------------


     EDDAV:  cpu time   61.19: real time   61.71
 BZINTS: Fermi energy:  1.679882;304.000000 electrons
         Band energy:***********;  BLOECHL correction: -0.015328
       DOS:  cpu time    0.04: real time    0.04
    --------------------------------------------
      LOOP:  cpu time   61.23: real time   62.01

 eigenvalue-minimisations  : 24536
 total energy-change (2. order) :-0.1326454E+04  (-0.1251878E+04)
 number of electron     304.0000000 magnetization       0.0000000
 augmentation part      304.0000000 magnetization       0.0000000

 Free energy of the ion-electron system (eV)
  ---------------------------------------------------
  alpha Z        PSCENC =       612.30704137
  Ewald energy   TEWEN  =     66542.54908959
  -1/2 Hartree   DENC   =    -86117.37037651
  -exchange  EXHF       =         0.00000000
  -V(xc)+E(xc)   XCENC  =       736.09838672
  PAW double counting   =     17543.03332174   -17357.91843947
  entropy T*S    EENTRO =         0.00000000
  eigenvalues    EBANDS =     -2713.66692921
  atomic energy  EATOM  =     20442.28171833
  ---------------------------------------------------
  free energy    TOTEN  =      -312.68618744 eV

  energy without entropy =     -312.68618744  energy(sigma->0) =     -312.68618744


--------------------------------------------------------------------------------------------------------




----------------------------------------- Iteration    1(   4)  ---------------------------------------


     EDDAV:  cpu time   52.80: real time   52.85
 BZINTS: Fermi energy:  0.700327;304.000000 electrons
         Band energy:***********;  BLOECHL correction: -0.003589
       DOS:  cpu time    0.04: real time    0.04
    --------------------------------------------
      LOOP:  cpu time   52.84: real time   53.15

 eigenvalue-minimisations  : 22208
 total energy-change (2. order) :-0.1940051E+03  (-0.1905421E+03)
 number of electron     304.0000000 magnetization       0.0000000
 augmentation part      304.0000000 magnetization       0.0000000

 Free energy of the ion-electron system (eV)
  ---------------------------------------------------
  alpha Z        PSCENC =       612.30704137
  Ewald energy   TEWEN  =     66542.54908959
  -1/2 Hartree   DENC   =    -86117.37037651
  -exchange  EXHF       =         0.00000000
  -V(xc)+E(xc)   XCENC  =       736.09838672
  PAW double counting   =     17543.03332174   -17357.91843947
  entropy T*S    EENTRO =         0.00000000
  eigenvalues    EBANDS =     -2907.67198356
  atomic energy  EATOM  =     20442.28171833
  ---------------------------------------------------
  free energy    TOTEN  =      -506.69124179 eV

  energy without entropy =     -506.69124179  energy(sigma->0) =     -506.69124179


--------------------------------------------------------------------------------------------------------




----------------------------------------- Iteration    1(   5)  ---------------------------------------


     EDDAV:  cpu time   53.19: real time   53.23
 BZINTS: Fermi energy:  0.620256;304.000000 electrons
         Band energy:***********;  BLOECHL correction: -0.003210
       DOS:  cpu time    0.04: real time    0.04
    CHARGE:  cpu time    1.11: real time    1.11
    MIXING:  cpu time    0.00: real time    0.00
    --------------------------------------------
      LOOP:  cpu time   54.35: real time   54.50

 eigenvalue-minimisations  : 22440
 total energy-change (2. order) :-0.8431359E+01  (-0.8285114E+01)
 number of electron     304.0000304 magnetization       0.0427795
 augmentation part       59.6082150 magnetization      -0.9435156

 Broyden mixing:
  rms(total) = 0.11185E+02    rms(broyden)= 0.11184E+02
  rms(prec ) = 0.11284E+02
  weight for this iteration     100.00

 Free energy of the ion-electron system (eV)
  ---------------------------------------------------
  alpha Z        PSCENC =       612.30704137
  Ewald energy   TEWEN  =     66542.54908959
  -1/2 Hartree   DENC   =    -86117.37037651
  -exchange  EXHF       =         0.00000000
  -V(xc)+E(xc)   XCENC  =       736.09838672
  PAW double counting   =     17543.03332174   -17357.91843947
  entropy T*S    EENTRO =         0.00000000
  eigenvalues    EBANDS =     -2916.10334266
  atomic energy  EATOM  =     20442.28171833
  ---------------------------------------------------
  free energy    TOTEN  =      -515.12260089 eV

  energy without entropy =     -515.12260089  energy(sigma->0) =     -515.12260089


--------------------------------------------------------------------------------------------------------




----------------------------------------- Iteration    1(   6)  ---------------------------------------


    POTLOK:  cpu time    0.09: real time    0.09
    SETDIJ:  cpu time    0.01: real time    0.01
     EDDAV:  cpu time   60.98: real time   61.01
 BZINTS: Fermi energy: -2.849410;304.000000 electrons
         Band energy:***********;  BLOECHL correction: -0.020006
       DOS:  cpu time    0.05: real time    0.05
    CHARGE:  cpu time    1.12: real time    1.11
    MIXING:  cpu time    0.00: real time    0.00
    --------------------------------------------
      LOOP:  cpu time   62.25: real time   62.49

 eigenvalue-minimisations  : 26344
 total energy-change (2. order) :-0.1109035E+03  (-0.2115302E+03)
 number of electron     304.0000425 magnetization       0.0481522
 augmentation part       99.8159419 magnetization      -1.0883080

 Broyden mixing:
  rms(total) = 0.25320E+02    rms(broyden)= 0.25319E+02
  rms(prec ) = 0.28143E+02
  weight for this iteration     100.00

 eigenvalues of (default mixing * dielectric matrix)
  average eigenvalue GAMMA=   0.1159
  0.1159

 Free energy of the ion-electron system (eV)
  ---------------------------------------------------
  alpha Z        PSCENC =       612.30704137
  Ewald energy   TEWEN  =     66542.54908959
  -1/2 Hartree   DENC   =    -86274.45117755
  -exchange  EXHF       =         0.00000000
  -V(xc)+E(xc)   XCENC  =       767.97021737
  PAW double counting   =     20681.09295457   -20455.51699645
  entropy T*S    EENTRO =         0.00000000
  eigenvalues    EBANDS =     -2942.25892886
  atomic energy  EATOM  =     20442.28171833
  ---------------------------------------------------
  free energy    TOTEN  =      -626.02608164 eV

  energy without entropy =     -626.02608164  energy(sigma->0) =     -626.02608164


--------------------------------------------------------------------------------------------------------




----------------------------------------- Iteration    1(   7)  ---------------------------------------


    POTLOK:  cpu time    0.09: real time    0.09
    SETDIJ:  cpu time    0.01: real time    0.01
     EDDAV:  cpu time   62.00: real time   62.05
 BZINTS: Fermi energy:  4.367462;304.000000 electrons
         Band energy:***********;  BLOECHL correction: -0.045324
       DOS:  cpu time    0.05: real time    0.05
    CHARGE:  cpu time    1.12: real time    1.12
    MIXING:  cpu time    0.00: real time    0.00
    --------------------------------------------
      LOOP:  cpu time   63.28: real time   63.42

 eigenvalue-minimisations  : 26888
 total energy-change (2. order) :-0.6934378E+03  (-0.8850222E+03)
 number of electron     304.0000282 magnetization       0.0472412
 augmentation part       85.6925930 magnetization       0.8296806

 Broyden mixing:
  rms(total) = 0.69519E+02    rms(broyden)= 0.69518E+02
  rms(prec ) = 0.73370E+02
  weight for this iteration     100.00

 eigenvalues of (default mixing * dielectric matrix)
  average eigenvalue GAMMA=   0.0889
  0.1200  0.0577

 Free energy of the ion-electron system (eV)
  ---------------------------------------------------
  alpha Z        PSCENC =       612.30704137
  Ewald energy   TEWEN  =     66542.54908959
  -1/2 Hartree   DENC   =    -86286.80130756
  -exchange  EXHF       =         0.00000000
  -V(xc)+E(xc)   XCENC  =       757.04350916
  PAW double counting   =     21151.06168088   -20943.38753062
  entropy T*S    EENTRO =         0.00000000
  eigenvalues    EBANDS =     -3594.51811917
  atomic energy  EATOM  =     20442.28171833
  ---------------------------------------------------
  free energy    TOTEN  =     -1319.46391803 eV

  energy without entropy =    -1319.46391803  energy(sigma->0) =    -1319.46391803


--------------------------------------------------------------------------------------------------------




----------------------------------------- Iteration    1(   8)  ---------------------------------------


    POTLOK:  cpu time    0.09: real time    0.09
    SETDIJ:  cpu time    0.01: real time    0.01
     EDDAV:  cpu time   55.04: real time   55.09
 BZINTS: Fermi energy: -0.187270;304.000000 electrons
         Band energy:***********;  BLOECHL correction: -0.056872
       DOS:  cpu time    0.05: real time    0.05
    CHARGE:  cpu time    1.11: real time    1.11
    MIXING:  cpu time    0.00: real time    0.00
    --------------------------------------------
      LOOP:  cpu time   56.30: real time   56.46

 eigenvalue-minimisations  : 23368
 total energy-change (2. order) :-0.2050578E+04  (-0.5396343E+03)
 number of electron     304.0000251 magnetization       0.0472150
 augmentation part       79.3359229 magnetization       1.9228058

 Broyden mixing:
  rms(total) = 0.88396E+02    rms(broyden)= 0.88396E+02
  rms(prec ) = 0.96039E+02
  weight for this iteration     100.00

 eigenvalues of (default mixing * dielectric matrix)
  average eigenvalue GAMMA=   0.0705
  0.1162  0.0476  0.0476

 Free energy of the ion-electron system (eV)
  ---------------------------------------------------
  alpha Z        PSCENC =       612.30704137
  Ewald energy   TEWEN  =     66542.54908959
  -1/2 Hartree   DENC   =    -86209.74714439
  -exchange  EXHF       =         0.00000000
  -V(xc)+E(xc)   XCENC  =       762.35037920
  PAW double counting   =     20755.27115297   -20541.57225548
  entropy T*S    EENTRO =         0.00000000
  eigenvalues    EBANDS =     -5733.48170485
  atomic energy  EATOM  =     20442.28171833
  ---------------------------------------------------
  free energy    TOTEN  =     -3370.04172326 eV

  energy without entropy =    -3370.04172326  energy(sigma->0) =    -3370.04172326


--------------------------------------------------------------------------------------------------------




----------------------------------------- Iteration    1(   9)  ---------------------------------------


    POTLOK:  cpu time    0.09: real time    0.09
    SETDIJ:  cpu time    0.01: real time    0.01
     EDDAV:  cpu time   54.52: real time   54.58
 BZINTS: Fermi energy: -3.163806;304.000000 electrons
         Band energy:***********;  BLOECHL correction: -0.022907
       DOS:  cpu time    0.05: real time    0.05
    CHARGE:  cpu time    1.11: real time    1.11
    MIXING:  cpu time    0.00: real time    0.00
    --------------------------------------------
      LOOP:  cpu time   55.78: real time   55.93

 eigenvalue-minimisations  : 23096
 total energy-change (2. order) :-0.2567456E+03  (-0.2245647E+03)
 number of electron     304.0000233 magnetization       0.0545587
 augmentation part       74.8869301 magnetization       1.7048550

 Broyden mixing:
  rms(total) = 0.56404E+02    rms(broyden)= 0.56403E+02
  rms(prec ) = 0.70073E+02
  weight for this iteration     100.00

 eigenvalues of (default mixing * dielectric matrix)
  average eigenvalue GAMMA=   0.0747
  0.1322  0.1322  0.0333  0.0012

 Free energy of the ion-electron system (eV)
  ---------------------------------------------------
  alpha Z        PSCENC =       612.30704137
  Ewald energy   TEWEN  =     66542.54908959
  -1/2 Hartree   DENC   =    -86209.19874220
  -exchange  EXHF       =         0.00000000
  -V(xc)+E(xc)   XCENC  =       762.44619262
  PAW double counting   =     20750.55163128   -20536.81243127
  entropy T*S    EENTRO =         0.00000000
  eigenvalues    EBANDS =     -5990.91181270
  atomic energy  EATOM  =     20442.28171833
  ---------------------------------------------------
  free energy    TOTEN  =     -3626.78731299 eV

  energy without entropy =    -3626.78731299  energy(sigma->0) =    -3626.78731299


--------------------------------------------------------------------------------------------------------




----------------------------------------- Iteration    1(  10)  ---------------------------------------


    POTLOK:  cpu time    0.09: real time    0.09
    SETDIJ:  cpu time    0.01: real time    0.01
     EDDAV:  cpu time   63.20: real time   63.23
 BZINTS: Fermi energy:  7.272917;304.000000 electrons
         Band energy:***********;  BLOECHL correction: -0.171414
       DOS:  cpu time    0.04: real time    0.04
    CHARGE:  cpu time    1.12: real time    1.12
    MIXING:  cpu time    0.00: real time    0.00
    --------------------------------------------
      LOOP:  cpu time   64.47: real time   64.59

 eigenvalue-minimisations  : 27528
 total energy-change (2. order) : 0.2335969E+04  (-0.5411075E+04)
 number of electron     304.0000410 magnetization       0.0631111
 augmentation part       93.8273301 magnetization       0.9939976

 Broyden mixing:
  rms(total) = 0.20035E+03    rms(broyden)= 0.20035E+03
  rms(prec ) = 0.20195E+03
  weight for this iteration     100.00

 eigenvalues of (default mixing * dielectric matrix)
  average eigenvalue GAMMA=   0.0770
  0.2710  0.0383  0.0383  0.0361  0.0015

 Free energy of the ion-electron system (eV)
  ---------------------------------------------------
  alpha Z        PSCENC =       612.30704137
  Ewald energy   TEWEN  =     66542.54908959
  -1/2 Hartree   DENC   =    -86159.66986324
  -exchange  EXHF       =         0.00000000
  -V(xc)+E(xc)   XCENC  =       743.68041875
  PAW double counting   =     20465.65538021   -20268.56700397
  entropy T*S    EENTRO =         0.00000000
  eigenvalues    EBANDS =     -3669.05534769
  atomic energy  EATOM  =     20442.28171833
  ---------------------------------------------------
  free energy    TOTEN  =     -1290.81856666 eV

  energy without entropy =    -1290.81856666  energy(sigma->0) =    -1290.81856666


--------------------------------------------------------------------------------------------------------




----------------------------------------- Iteration    1(  11)  ---------------------------------------


    POTLOK:  cpu time    0.09: real time    0.09
    SETDIJ:  cpu time    0.01: real time    0.01
     EDDAV:  cpu time   48.39: real time   48.43
 BZINTS: Fermi energy:  0.427569;304.000000 electrons
         Band energy:***********;  BLOECHL correction: -0.025845
       DOS:  cpu time    0.05: real time    0.05
    CHARGE:  cpu time    1.10: real time    1.10
    MIXING:  cpu time    0.00: real time    0.00
    --------------------------------------------
      LOOP:  cpu time   49.64: real time   49.79

 eigenvalue-minimisations  : 19856
 total energy-change (2. order) : 0.1036369E+04  (-0.9984989E+03)
 number of electron     304.0000356 magnetization       0.0630803
 augmentation part       83.3027935 magnetization       0.2834739

 Broyden mixing:
  rms(total) = 0.37873E+02    rms(broyden)= 0.37873E+02
  rms(prec ) = 0.39646E+02
  weight for this iteration     100.00

 eigenvalues of (default mixing * dielectric matrix)
  average eigenvalue GAMMA=   0.0688
  0.2573  0.0349  0.0349  0.0422  0.0422  0.0015

 Free energy of the ion-electron system (eV)
  ---------------------------------------------------
  alpha Z        PSCENC =       612.30704137
  Ewald energy   TEWEN  =     66542.54908959
  -1/2 Hartree   DENC   =    -86152.52254617
  -exchange  EXHF       =         0.00000000
  -V(xc)+E(xc)   XCENC  =       741.76648229
  PAW double counting   =     20183.97946233   -19998.99821399
  entropy T*S    EENTRO =         0.00000000
  eigenvalues    EBANDS =     -2625.81232395
  atomic energy  EATOM  =     20442.28171833
  ---------------------------------------------------
  free energy    TOTEN  =      -254.44929021 eV

  energy without entropy =     -254.44929021  energy(sigma->0) =     -254.44929021


--------------------------------------------------------------------------------------------------------




----------------------------------------- Iteration    1(  12)  ---------------------------------------


    POTLOK:  cpu time    0.09: real time    0.09
    SETDIJ:  cpu time    0.01: real time    0.01
     EDDAV:  cpu time   54.56: real time   54.61
 BZINTS: Fermi energy: -0.932168;304.000000 electrons
         Band energy:***********;  BLOECHL correction: -0.016254
       DOS:  cpu time    0.04: real time    0.05
    CHARGE:  cpu time    1.11: real time    1.11
    MIXING:  cpu time    0.00: real time    0.00
    --------------------------------------------
      LOOP:  cpu time   55.82: real time   55.96

 eigenvalue-minimisations  : 23072
 total energy-change (2. order) :-0.1260666E+03  (-0.2658201E+03)
 number of electron     304.0000336 magnetization       0.0930776
 augmentation part       71.9024665 magnetization      -2.0736165

 Broyden mixing:
  rms(total) = 0.14456E+02    rms(broyden)= 0.14456E+02
  rms(prec ) = 0.15806E+02
  weight for this iteration     100.00

 eigenvalues of (default mixing * dielectric matrix)
  average eigenvalue GAMMA=   0.0948
  0.2428  0.2428  0.0347  0.0347  0.0689  0.0381  0.0015

 Free energy of the ion-electron system (eV)
  ---------------------------------------------------
  alpha Z        PSCENC =       612.30704137
  Ewald energy   TEWEN  =     66542.54908959
  -1/2 Hartree   DENC   =    -86317.73772472
  -exchange  EXHF       =         0.00000000
  -V(xc)+E(xc)   XCENC  =       739.09604675
  PAW double counting   =     20218.37616308   -20035.61028119
  entropy T*S    EENTRO =         0.00000000
  eigenvalues    EBANDS =     -2581.77790200
  atomic energy  EATOM  =     20442.28171833
  ---------------------------------------------------
  free energy    TOTEN  =      -380.51584879 eV

  energy without entropy =     -380.51584879  energy(sigma->0) =     -380.51584879


--------------------------------------------------------------------------------------------------------




----------------------------------------- Iteration    1(  13)  ---------------------------------------


    POTLOK:  cpu time    0.09: real time    0.09
    SETDIJ:  cpu time    0.01: real time    0.01
     EDDAV:  cpu time   60.12: real time   60.14
 BZINTS: Fermi energy: -2.131639;304.000000 electrons
         Band energy:***********;  BLOECHL correction: -0.012881
       DOS:  cpu time    0.05: real time    0.05
    CHARGE:  cpu time    1.11: real time    1.11
    MIXING:  cpu time    0.00: real time    0.00
    --------------------------------------------
      LOOP:  cpu time   61.38: real time   61.61

 eigenvalue-minimisations  : 25936
 total energy-change (2. order) :-0.1594923E+03  (-0.1180763E+03)
 number of electron     304.0000355 magnetization       0.1131336
 augmentation part       78.2773288 magnetization      -0.6475386

 Broyden mixing:
  rms(total) = 0.19122E+02    rms(broyden)= 0.19122E+02
  rms(prec ) = 0.22976E+02
  weight for this iteration     100.00

 eigenvalues of (default mixing * dielectric matrix)
  average eigenvalue GAMMA=   0.1079
  0.2951  0.2951  0.1052  0.0349  0.0349  0.0578  0.0386  0.0015

 Free energy of the ion-electron system (eV)
  ---------------------------------------------------
  alpha Z        PSCENC =       612.30704137
  Ewald energy   TEWEN  =     66542.54908959
  -1/2 Hartree   DENC   =    -85939.90515738
  -exchange  EXHF       =         0.00000000
  -V(xc)+E(xc)   XCENC  =       736.83226978
  PAW double counting   =     20304.32739596   -20122.05046122
  entropy T*S    EENTRO =         0.00000000
  eigenvalues    EBANDS =     -3116.35006316
  atomic energy  EATOM  =     20442.28171833
  ---------------------------------------------------
  free energy    TOTEN  =      -540.00816674 eV

  energy without entropy =     -540.00816674  energy(sigma->0) =     -540.00816674


--------------------------------------------------------------------------------------------------------




----------------------------------------- Iteration    1(  14)  ---------------------------------------


    POTLOK:  cpu time    0.09: real time    0.09
    SETDIJ:  cpu time    0.01: real time    0.01
     EDDAV:  cpu time   60.46: real time   60.51
 BZINTS: Fermi energy:  0.107845;304.000000 electrons
         Band energy:***********;  BLOECHL correction: -0.029447
       DOS:  cpu time    0.04: real time    0.05
    CHARGE:  cpu time    1.11: real time    1.11
    MIXING:  cpu time    0.00: real time    0.00
    --------------------------------------------
      LOOP:  cpu time   61.72: real time   61.86

 eigenvalue-minimisations  : 26120
 total energy-change (2. order) :-0.3260349E+01  (-0.2038685E+03)
 number of electron     304.0000312 magnetization       0.1328184
 augmentation part       73.9931218 magnetization      -1.3053023

 Broyden mixing:
  rms(total) = 0.19295E+02    rms(broyden)= 0.19294E+02
  rms(prec ) = 0.22177E+02
  weight for this iteration     100.00

 eigenvalues of (default mixing * dielectric matrix)
  average eigenvalue GAMMA=   0.1206
  0.3729  0.3729  0.0927  0.0927  0.0349  0.0349  0.0384  0.0450  0.0015

 Free energy of the ion-electron system (eV)
  ---------------------------------------------------
  alpha Z        PSCENC =       612.30704137
  Ewald energy   TEWEN  =     66542.54908959
  -1/2 Hartree   DENC   =    -86490.83851170
  -exchange  EXHF       =         0.00000000
  -V(xc)+E(xc)   XCENC  =       734.92166070
  PAW double counting   =     20418.76255892   -20238.12069733
  entropy T*S    EENTRO =         0.00000000
  eigenvalues    EBANDS =     -2565.13137538
  atomic energy  EATOM  =     20442.28171833
  ---------------------------------------------------
  free energy    TOTEN  =      -543.26851551 eV

  energy without entropy =     -543.26851551  energy(sigma->0) =     -543.26851551


--------------------------------------------------------------------------------------------------------




----------------------------------------- Iteration    1(  15)  ---------------------------------------


    POTLOK:  cpu time    0.09: real time    0.09
    SETDIJ:  cpu time    0.01: real time    0.01
     EDDAV:  cpu time   54.59: real time   54.63
 BZINTS: Fermi energy: -1.352476;304.000000 electrons
         Band energy:***********;  BLOECHL correction: -0.033923
       DOS:  cpu time    0.04: real time    0.04
    CHARGE:  cpu time    1.11: real time    1.11
    MIXING:  cpu time    0.00: real time    0.00
    --------------------------------------------
      LOOP:  cpu time   55.84: real time   55.99

 eigenvalue-minimisations  : 23128
 total energy-change (2. order) : 0.1455087E+03  (-0.5920711E+02)
 number of electron     304.0000330 magnetization       0.1531374
 augmentation part       68.7877776 magnetization      -1.0594036

 Broyden mixing:
  rms(total) = 0.11951E+02    rms(broyden)= 0.11950E+02
  rms(prec ) = 0.12764E+02
  weight for this iteration     100.00

 eigenvalues of (default mixing * dielectric matrix)
  average eigenvalue GAMMA=   0.1358
  0.4333  0.4333  0.1252  0.1252  0.0350  0.0350  0.0863  0.0385  0.0443  0.0015

 Free energy of the ion-electron system (eV)
  ---------------------------------------------------
  alpha Z        PSCENC =       612.30704137
  Ewald energy   TEWEN  =     66542.54908959
  -1/2 Hartree   DENC   =    -86224.23375242
  -exchange  EXHF       =         0.00000000
  -V(xc)+E(xc)   XCENC  =       731.72215182
  PAW double counting   =     20596.09577247   -20417.25563018
  entropy T*S    EENTRO =         0.00000000
  eigenvalues    EBANDS =     -2681.22618010
  atomic energy  EATOM  =     20442.28171833
  ---------------------------------------------------
  free energy    TOTEN  =      -397.75978912 eV

  energy without entropy =     -397.75978912  energy(sigma->0) =     -397.75978912


--------------------------------------------------------------------------------------------------------




----------------------------------------- Iteration    1(  16)  ---------------------------------------


    POTLOK:  cpu time    0.09: real time    0.09
    SETDIJ:  cpu time    0.01: real time    0.01
     EDDAV:  cpu time   57.38: real time   57.42
 BZINTS: Fermi energy: -2.103491;304.000000 electrons
         Band energy:***********;  BLOECHL correction: -0.011045
       DOS:  cpu time    0.05: real time    0.05
    CHARGE:  cpu time    1.11: real time    1.11
    MIXING:  cpu time    0.00: real time    0.00
    --------------------------------------------
      LOOP:  cpu time   58.64: real time   58.79

 eigenvalue-minimisations  : 24552
 total energy-change (2. order) :-0.1924170E+02  (-0.5381679E+02)
 number of electron     304.0000353 magnetization       0.1812988
 augmentation part       69.6904383 magnetization      -0.0813816

 Broyden mixing:
  rms(total) = 0.10702E+02    rms(broyden)= 0.10702E+02
  rms(prec ) = 0.11586E+02
  weight for this iteration     100.00

 eigenvalues of (default mixing * dielectric matrix)
  average eigenvalue GAMMA=   0.1554
  0.4544  0.4018  0.4018  0.0350  0.0350  0.1041  0.1041  0.0875  0.0385  0.0463
  0.0015

 Free energy of the ion-electron system (eV)
  ---------------------------------------------------
  alpha Z        PSCENC =       612.30704137
  Ewald energy   TEWEN  =     66542.54908959
  -1/2 Hartree   DENC   =    -86049.68534985
  -exchange  EXHF       =         0.00000000
  -V(xc)+E(xc)   XCENC  =       730.60792652
  PAW double counting   =     20802.43595739   -20624.80956275
  entropy T*S    EENTRO =         0.00000000
  eigenvalues    EBANDS =     -2872.68831365
  atomic energy  EATOM  =     20442.28171833
  ---------------------------------------------------
  free energy    TOTEN  =      -417.00149306 eV

  energy without entropy =     -417.00149306  energy(sigma->0) =     -417.00149306


--------------------------------------------------------------------------------------------------------




----------------------------------------- Iteration    1(  17)  ---------------------------------------


    POTLOK:  cpu time    0.09: real time    0.09
    SETDIJ:  cpu time    0.01: real time    0.01
     EDDAV:  cpu time   60.29: real time   60.33
 BZINTS: Fermi energy: -1.896669;304.000000 electrons
         Band energy:***********;  BLOECHL correction: -0.023818
       DOS:  cpu time    0.05: real time    0.05
    CHARGE:  cpu time    1.10: real time    1.10
    MIXING:  cpu time    0.00: real time    0.00
    --------------------------------------------
      LOOP:  cpu time   61.55: real time   61.69

 eigenvalue-minimisations  : 26072
 total energy-change (2. order) :-0.2459079E+02  (-0.2562141E+02)
 number of electron     304.0000345 magnetization       0.2056900
 augmentation part       72.8516870 magnetization      -0.9274477

 Broyden mixing:
  rms(total) = 0.14150E+02    rms(broyden)= 0.14150E+02
  rms(prec ) = 0.14999E+02
  weight for this iteration     100.00

 eigenvalues of (default mixing * dielectric matrix)
  average eigenvalue GAMMA=   0.1727
  0.5494  0.4509  0.4509  0.2065  0.0350  0.0350  0.0947  0.0947  0.0694  0.0385
  0.0460  0.0015

 Free energy of the ion-electron system (eV)
  ---------------------------------------------------
  alpha Z        PSCENC =       612.30704137
  Ewald energy   TEWEN  =     66542.54908959
  -1/2 Hartree   DENC   =    -86121.95294108
  -exchange  EXHF       =         0.00000000
  -V(xc)+E(xc)   XCENC  =       731.66597242
  PAW double counting   =     21197.51902060   -21021.38518587
  entropy T*S    EENTRO =         0.00000000
  eigenvalues    EBANDS =     -2824.57700043
  atomic energy  EATOM  =     20442.28171833
  ---------------------------------------------------
  free energy    TOTEN  =      -441.59228507 eV

  energy without entropy =     -441.59228507  energy(sigma->0) =     -441.59228507


--------------------------------------------------------------------------------------------------------




----------------------------------------- Iteration    1(  18)  ---------------------------------------


    POTLOK:  cpu time    0.09: real time    0.09
    SETDIJ:  cpu time    0.01: real time    0.01
     EDDAV:  cpu time   56.81: real time   56.83
 BZINTS: Fermi energy: -2.227054;304.000000 electrons
         Band energy:***********;  BLOECHL correction: -0.016924
       DOS:  cpu time    0.05: real time    0.05
    CHARGE:  cpu time    1.11: real time    1.11
    MIXING:  cpu time    0.00: real time    0.00
    --------------------------------------------
      LOOP:  cpu time   58.07: real time   58.19

 eigenvalue-minimisations  : 24296
 total energy-change (2. order) : 0.2460273E+02  (-0.1627203E+02)
 number of electron     304.0000353 magnetization       0.2243513
 augmentation part       73.4384894 magnetization      -0.8255447

 Broyden mixing:
  rms(total) = 0.97306E+01    rms(broyden)= 0.97303E+01
  rms(prec ) = 0.11234E+02
  weight for this iteration     100.00

 eigenvalues of (default mixing * dielectric matrix)
  average eigenvalue GAMMA=   0.1926
  0.6708  0.6708  0.3057  0.3057  0.0350  0.0350  0.1244  0.1002  0.1002  0.0708
  0.0385  0.0460  0.0015

 Free energy of the ion-electron system (eV)
  ---------------------------------------------------
  alpha Z        PSCENC =       612.30704137
  Ewald energy   TEWEN  =     66542.54908959
  -1/2 Hartree   DENC   =    -86110.19839664
  -exchange  EXHF       =         0.00000000
  -V(xc)+E(xc)   XCENC  =       731.99257943
  PAW double counting   =     21489.36972118   -21314.36161962
  entropy T*S    EENTRO =         0.00000000
  eigenvalues    EBANDS =     -2810.92969139
  atomic energy  EATOM  =     20442.28171833
  ---------------------------------------------------
  free energy    TOTEN  =      -416.98955775 eV

  energy without entropy =     -416.98955775  energy(sigma->0) =     -416.98955775


--------------------------------------------------------------------------------------------------------




----------------------------------------- Iteration    1(  19)  ---------------------------------------


    POTLOK:  cpu time    0.09: real time    0.09
    SETDIJ:  cpu time    0.01: real time    0.01
     EDDAV:  cpu time   60.25: real time   60.28
 BZINTS: Fermi energy: -1.944324;304.000000 electrons
         Band energy:***********;  BLOECHL correction: -0.021661
       DOS:  cpu time    0.05: real time    0.05
    CHARGE:  cpu time    1.11: real time    1.11
    MIXING:  cpu time    0.00: real time    0.00
    --------------------------------------------
      LOOP:  cpu time   61.51: real time   61.63

 eigenvalue-minimisations  : 26072
 total energy-change (2. order) : 0.2072467E+02  (-0.1537140E+02)
 number of electron     304.0000318 magnetization       0.2355932
 augmentation part       69.6107607 magnetization      -0.0885135

 Broyden mixing:
  rms(total) = 0.93933E+01    rms(broyden)= 0.93927E+01
  rms(prec ) = 0.99147E+01
  weight for this iteration     100.00

 eigenvalues of (default mixing * dielectric matrix)
  average eigenvalue GAMMA=   0.1951
  0.7090  0.7090  0.3107  0.3107  0.1925  0.0350  0.0350  0.0970  0.0970  0.0750
  0.0750  0.0385  0.0460  0.0015

 Free energy of the ion-electron system (eV)
  ---------------------------------------------------
  alpha Z        PSCENC =       612.30704137
  Ewald energy   TEWEN  =     66542.54908959
  -1/2 Hartree   DENC   =    -86168.13688436
  -exchange  EXHF       =         0.00000000
  -V(xc)+E(xc)   XCENC  =       731.72974697
  PAW double counting   =     21611.83050330   -21437.78029051
  entropy T*S    EENTRO =         0.00000000
  eigenvalues    EBANDS =     -2731.04581428
  atomic energy  EATOM  =     20442.28171833
  ---------------------------------------------------
  free energy    TOTEN  =      -396.26488959 eV

  energy without entropy =     -396.26488959  energy(sigma->0) =     -396.26488959


--------------------------------------------------------------------------------------------------------




----------------------------------------- Iteration    1(  20)  ---------------------------------------


    POTLOK:  cpu time    0.09: real time    0.09
    SETDIJ:  cpu time    0.01: real time    0.01
     EDDAV:  cpu time   59.44: real time   59.49
 BZINTS: Fermi energy: -1.851322;304.000000 electrons
         Band energy:***********;  BLOECHL correction: -0.022732
       DOS:  cpu time    0.05: real time    0.05
    CHARGE:  cpu time    1.10: real time    1.10
    MIXING:  cpu time    0.00: real time    0.00
    --------------------------------------------
      LOOP:  cpu time   60.70: real time   60.95

 eigenvalue-minimisations  : 25688
 total energy-change (2. order) : 0.8420802E+01  (-0.7492035E+01)
 number of electron     304.0000286 magnetization       0.2595630
 augmentation part       68.4827665 magnetization      -2.6188684

 Broyden mixing:
  rms(total) = 0.82395E+01    rms(broyden)= 0.82391E+01
  rms(prec ) = 0.87573E+01
  weight for this iteration     100.00

 eigenvalues of (default mixing * dielectric matrix)
  average eigenvalue GAMMA=   0.1854
  0.6284  0.6284  0.4019  0.2572  0.2572  0.0350  0.0350  0.0965  0.0965  0.0934
  0.0934  0.0714  0.0385  0.0460  0.0015

 Free energy of the ion-electron system (eV)
  ---------------------------------------------------
  alpha Z        PSCENC =       612.30704137
  Ewald energy   TEWEN  =     66542.54908959
  -1/2 Hartree   DENC   =    -86254.31079306
  -exchange  EXHF       =         0.00000000
  -V(xc)+E(xc)   XCENC  =       732.18797156
  PAW double counting   =     21711.49589842   -21537.31124292
  entropy T*S    EENTRO =         0.00000000
  eigenvalues    EBANDS =     -2637.04377081
  atomic energy  EATOM  =     20442.28171833
  ---------------------------------------------------
  free energy    TOTEN  =      -387.84408753 eV

  energy without entropy =     -387.84408753  energy(sigma->0) =     -387.84408753


--------------------------------------------------------------------------------------------------------




----------------------------------------- Iteration    1(  21)  ---------------------------------------


    POTLOK:  cpu time    0.09: real time    0.09
    SETDIJ:  cpu time    0.01: real time    0.01
     EDDAV:  cpu time   56.11: real time   56.16
 BZINTS: Fermi energy: -1.858577;304.000000 electrons
         Band energy:***********;  BLOECHL correction: -0.014075
       DOS:  cpu time    0.05: real time    0.05
    CHARGE:  cpu time    1.12: real time    1.12
    MIXING:  cpu time    0.00: real time    0.00
    --------------------------------------------
      LOOP:  cpu time   57.39: real time   57.54

 eigenvalue-minimisations  : 23960
 total energy-change (2. order) : 0.5965850E+01  (-0.4017167E+01)
 number of electron     304.0000314 magnetization       0.2666687
 augmentation part       68.2463100 magnetization      -0.7893221

 Broyden mixing:
  rms(total) = 0.70238E+01    rms(broyden)= 0.70236E+01
  rms(prec ) = 0.74467E+01
  weight for this iteration     100.00

 eigenvalues of (default mixing * dielectric matrix)
  average eigenvalue GAMMA=   0.1902
  0.7963  0.4934  0.4934  0.2379  0.2379  0.1758  0.0350  0.0350  0.0999  0.0999
  0.1097  0.0712  0.0712  0.0385  0.0460  0.0015

 Free energy of the ion-electron system (eV)
  ---------------------------------------------------
  alpha Z        PSCENC =       612.30704137
  Ewald energy   TEWEN  =     66542.54908959
  -1/2 Hartree   DENC   =    -86252.40325661
  -exchange  EXHF       =         0.00000000
  -V(xc)+E(xc)   XCENC  =       732.66820839
  PAW double counting   =     21781.16902207   -21607.26575694
  entropy T*S    EENTRO =         0.00000000
  eigenvalues    EBANDS =     -2633.18430325
  atomic energy  EATOM  =     20442.28171833
  ---------------------------------------------------
  free energy    TOTEN  =      -381.87823707 eV

  energy without entropy =     -381.87823707  energy(sigma->0) =     -381.87823707


--------------------------------------------------------------------------------------------------------




----------------------------------------- Iteration    1(  22)  ---------------------------------------


    POTLOK:  cpu time    0.09: real time    0.09
    SETDIJ:  cpu time    0.01: real time    0.01
     EDDAV:  cpu time   60.10: real time   60.15
 BZINTS: Fermi energy: -1.901072;304.000000 electrons
         Band energy:***********;  BLOECHL correction: -0.023965
       DOS:  cpu time    0.05: real time    0.05
    CHARGE:  cpu time    1.12: real time    1.13
    MIXING:  cpu time    0.00: real time    0.00
    --------------------------------------------
      LOOP:  cpu time   61.38: real time   61.53

 eigenvalue-minimisations  : 26016
 total energy-change (2. order) :-0.8731797E+00  (-0.1772263E+01)
 number of electron     304.0000299 magnetization       0.2746524
 augmentation part       68.4258468 magnetization      -1.6240371

 Broyden mixing:
  rms(total) = 0.74855E+01    rms(broyden)= 0.74853E+01
  rms(prec ) = 0.79313E+01
  weight for this iteration     100.00

 eigenvalues of (default mixing * dielectric matrix)
  average eigenvalue GAMMA=   0.1902
  0.8113  0.4816  0.4816  0.2928  0.2928  0.2063  0.0350  0.0350  0.0984  0.0984
  0.0015  0.0901  0.0901  0.0385  0.0460  0.0744  0.0597

 Free energy of the ion-electron system (eV)
  ---------------------------------------------------
  alpha Z        PSCENC =       612.30704137
  Ewald energy   TEWEN  =     66542.54908959
  -1/2 Hartree   DENC   =    -86231.98624819
  -exchange  EXHF       =         0.00000000
  -V(xc)+E(xc)   XCENC  =       732.78681158
  PAW double counting   =     21817.07413667   -21643.03459994
  entropy T*S    EENTRO =         0.00000000
  eigenvalues    EBANDS =     -2654.72936617
  atomic energy  EATOM  =     20442.28171833
  ---------------------------------------------------
  free energy    TOTEN  =      -382.75141676 eV

  energy without entropy =     -382.75141676  energy(sigma->0) =     -382.75141676


--------------------------------------------------------------------------------------------------------




----------------------------------------- Iteration    1(  23)  ---------------------------------------


    POTLOK:  cpu time    0.09: real time    0.09
    SETDIJ:  cpu time    0.01: real time    0.01
     EDDAV:  cpu time   56.71: real time   56.76
 BZINTS: Fermi energy: -1.833213;304.000000 electrons
         Band energy:***********;  BLOECHL correction: -0.013445
       DOS:  cpu time    0.04: real time    0.04
    CHARGE:  cpu time    1.12: real time    1.12
    MIXING:  cpu time    0.00: real time    0.00
    --------------------------------------------
      LOOP:  cpu time   57.99: real time   58.13

 eigenvalue-minimisations  : 24288
 total energy-change (2. order) : 0.8389055E+00  (-0.2134502E+01)
 number of electron     304.0000298 magnetization       0.2840706
 augmentation part       68.1335539 magnetization      -2.0707892

 Broyden mixing:
  rms(total) = 0.69779E+01    rms(broyden)= 0.69777E+01
  rms(prec ) = 0.76513E+01
  weight for this iteration     100.00

 eigenvalues of (default mixing * dielectric matrix)
  average eigenvalue GAMMA=   0.1867
  0.7928  0.4657  0.4657  0.3297  0.3297  0.2195  0.0350  0.0350  0.1375  0.0973
  0.0973  0.0015  0.0837  0.0385  0.0460  0.0661  0.0661  0.0539

 Free energy of the ion-electron system (eV)
  ---------------------------------------------------
  alpha Z        PSCENC =       612.30704137
  Ewald energy   TEWEN  =     66542.54908959
  -1/2 Hartree   DENC   =    -86236.32408125
  -exchange  EXHF       =         0.00000000
  -V(xc)+E(xc)   XCENC  =       733.49113255
  PAW double counting   =     21846.18810587   -21672.42301895
  entropy T*S    EENTRO =         0.00000000
  eigenvalues    EBANDS =     -2649.98249871
  atomic energy  EATOM  =     20442.28171833
  ---------------------------------------------------
  free energy    TOTEN  =      -381.91251121 eV

  energy without entropy =     -381.91251121  energy(sigma->0) =     -381.91251121


--------------------------------------------------------------------------------------------------------




----------------------------------------- Iteration    1(  24)  ---------------------------------------


    POTLOK:  cpu time    0.09: real time    0.09
    SETDIJ:  cpu time    0.01: real time    0.01
     EDDAV:  cpu time   56.12: real time   56.16
 BZINTS: Fermi energy: -1.817854;304.000000 electrons
         Band energy:***********;  BLOECHL correction: -0.007326
       DOS:  cpu time    0.05: real time    0.05
    CHARGE:  cpu time    1.12: real time    1.12
    MIXING:  cpu time    0.00: real time    0.00
    --------------------------------------------
      LOOP:  cpu time   57.40: real time   57.54

 eigenvalue-minimisations  : 23992
 total energy-change (2. order) : 0.1831550E+01  (-0.1314139E+01)
 number of electron     304.0000294 magnetization       0.2919812
 augmentation part       68.0138754 magnetization      -1.2610238

 Broyden mixing:
  rms(total) = 0.64018E+01    rms(broyden)= 0.64017E+01
  rms(prec ) = 0.68679E+01
  weight for this iteration     100.00

 eigenvalues of (default mixing * dielectric matrix)
  average eigenvalue GAMMA=   0.1893
  0.8136  0.4977  0.4977  0.3422  0.3422  0.2281  0.1551  0.0350  0.0350  0.0967
  0.0967  0.0015  0.0828  0.0828  0.0753  0.0753  0.0385  0.0460  0.0549

 Free energy of the ion-electron system (eV)
  ---------------------------------------------------
  alpha Z        PSCENC =       612.30704137
  Ewald energy   TEWEN  =     66542.54908959
  -1/2 Hartree   DENC   =    -86249.66051025
  -exchange  EXHF       =         0.00000000
  -V(xc)+E(xc)   XCENC  =       733.85028479
  PAW double counting   =     21859.37365758   -21685.62264764
  entropy T*S    EENTRO =         0.00000000
  eigenvalues    EBANDS =     -2635.15959545
  atomic energy  EATOM  =     20442.28171833
  ---------------------------------------------------
  free energy    TOTEN  =      -380.08096169 eV

  energy without entropy =     -380.08096169  energy(sigma->0) =     -380.08096169


--------------------------------------------------------------------------------------------------------




----------------------------------------- Iteration    1(  25)  ---------------------------------------


    POTLOK:  cpu time    0.09: real time    0.09
    SETDIJ:  cpu time    0.01: real time    0.01
     EDDAV:  cpu time   58.95: real time   59.00
 BZINTS: Fermi energy: -1.771218;304.000000 electrons
         Band energy:***********;  BLOECHL correction: -0.018904
       DOS:  cpu time    0.05: real time    0.05
    CHARGE:  cpu time    1.12: real time    1.12
    MIXING:  cpu time    0.00: real time    0.00
    --------------------------------------------
      LOOP:  cpu time   60.23: real time   60.38

 eigenvalue-minimisations  : 25464
 total energy-change (2. order) :-0.1636319E+01  (-0.8923818E+00)
 number of electron     304.0000305 magnetization       0.2936281
 augmentation part       67.8714866 magnetization      -1.8118961

 Broyden mixing:
  rms(total) = 0.66309E+01    rms(broyden)= 0.66308E+01
  rms(prec ) = 0.70806E+01
  weight for this iteration     100.00

 eigenvalues of (default mixing * dielectric matrix)
  average eigenvalue GAMMA=   0.1841
  0.8187  0.5029  0.5029  0.3323  0.3323  0.1733  0.1733  0.0350  0.0350  0.1140
  0.1140  0.0992  0.0992  0.0015  0.0385  0.0795  0.0743  0.0616  0.0460  0.0487

 Free energy of the ion-electron system (eV)
  ---------------------------------------------------
  alpha Z        PSCENC =       612.30704137
  Ewald energy   TEWEN  =     66542.54908959
  -1/2 Hartree   DENC   =    -86249.44276682
  -exchange  EXHF       =         0.00000000
  -V(xc)+E(xc)   XCENC  =       734.21461204
  PAW double counting   =     21887.98857196   -21713.98139171
  entropy T*S    EENTRO =         0.00000000
  eigenvalues    EBANDS =     -2637.63415549
  atomic energy  EATOM  =     20442.28171833
  ---------------------------------------------------
  free energy    TOTEN  =      -381.71728074 eV

  energy without entropy =     -381.71728074  energy(sigma->0) =     -381.71728074


--------------------------------------------------------------------------------------------------------




----------------------------------------- Iteration    1(  26)  ---------------------------------------


    POTLOK:  cpu time    0.09: real time    0.09
    SETDIJ:  cpu time    0.01: real time    0.01
     EDDAV:  cpu time   57.32: real time   57.36
 BZINTS: Fermi energy: -1.748595;304.000000 electrons
         Band energy:***********;  BLOECHL correction: -0.013076
       DOS:  cpu time    0.05: real time    0.05
    CHARGE:  cpu time    1.13: real time    1.13
    MIXING:  cpu time    0.00: real time    0.01
    --------------------------------------------
      LOOP:  cpu time   58.60: real time   58.74

 eigenvalue-minimisations  : 24608
 total energy-change (2. order) :-0.3360371E-01  (-0.5400122E+00)
 number of electron     304.0000299 magnetization       0.2968945
 augmentation part       67.8068030 magnetization      -1.8066833

 Broyden mixing:
  rms(total) = 0.63930E+01    rms(broyden)= 0.63930E+01
  rms(prec ) = 0.68406E+01
  weight for this iteration     100.00

 eigenvalues of (default mixing * dielectric matrix)
  average eigenvalue GAMMA=   0.1814
  0.8357  0.4879  0.4879  0.3402  0.3402  0.1662  0.1662  0.1524  0.1524  0.0350
[...]
 total augmentation occupancy for first ion, spin component:           1
  8.646  -0.196   0.006   5.042  -0.039  -5.596   0.142   0.006  -3.803   0.045   0.157  -0.086  -0.017  -0.007  -0.522   0.012
 -0.196   6.678   2.181  -0.195   4.218   0.137  -4.475  -1.696   0.132  -3.420   0.596  -0.470   0.106  -0.475   0.003   0.054
  0.006   2.181   7.861  -0.032   5.592   0.006  -1.749  -5.178   0.035  -4.328   2.640  -1.067   0.374  -0.218  -0.001   0.112
  5.042  -0.195  -0.032  11.325  -0.048  -3.812   0.136   0.028  -8.171   0.038   0.162  -0.074  -0.006  -0.006  -0.817   0.009
 -0.039   4.218   5.592  -0.048  17.044   0.042  -3.485  -4.285   0.047 -12.729   3.549  -1.928   0.735  -0.484  -0.003   0.245
 -5.596   0.137   0.006  -3.812   0.042   4.148  -0.104  -0.014   3.068  -0.046  -0.091   0.051   0.012   0.001   0.510  -0.007
  0.142  -4.475  -1.749   0.136  -3.485  -0.104   3.499   1.400  -0.093   2.944  -0.221   0.289  -0.102   0.480  -0.004  -0.048
  0.006  -1.696  -5.178   0.028  -4.285  -0.014   1.400   3.878  -0.029   3.469  -1.963   0.718  -0.408   0.258  -0.000  -0.046
 -3.803   0.132   0.035  -8.171   0.047   3.068  -0.093  -0.029   6.675  -0.036  -0.099   0.040   0.001   0.000   0.827  -0.005
  0.045  -3.420  -4.328   0.038 -12.729  -0.046   2.944   3.469  -0.036  10.345  -2.299   1.259  -0.799   0.474  -0.001  -0.118
  0.157   0.596   2.640   0.162   3.549  -0.091  -0.221  -1.963  -0.099  -2.299   4.362  -1.441   0.120   0.089  -0.011   0.113
 -0.086  -0.470  -1.067  -0.074  -1.928   0.051   0.289   0.718   0.040   1.259  -1.441   0.689  -0.004  -0.044   0.004  -0.077
 -0.017   0.106   0.374  -0.006   0.735   0.012  -0.102  -0.408   0.001  -0.799   0.120  -0.004   0.307   0.054   0.002  -0.046
 -0.007  -0.475  -0.218  -0.006  -0.484   0.001   0.480   0.258   0.000   0.474   0.089  -0.044   0.054   0.226  -0.001  -0.009
 -0.522   0.003  -0.001  -0.817  -0.003   0.510  -0.004  -0.000   0.827  -0.001  -0.011   0.004   0.002  -0.001   0.273  -0.001
  0.012   0.054   0.112   0.009   0.245  -0.007  -0.048  -0.046  -0.005  -0.118   0.113  -0.077  -0.046  -0.009  -0.001   0.021
  0.011  -0.024  -0.109   0.012  -0.064  -0.007  -0.014   0.045  -0.007   0.020  -0.069   0.026  -0.010  -0.031   0.000  -0.001
 -0.088   0.008   0.004  -0.110   0.009   0.022  -0.005  -0.003   0.011  -0.006   0.002  -0.000  -0.001   0.000  -0.035   0.000
 total augmentation occupancy for first ion, spin component:           2
  1.512   0.120  -0.036  -2.089  -0.046  -0.603  -0.073   0.025   1.069   0.031  -0.164   0.088   0.009   0.016  -0.075  -0.010
  0.120   4.075  -0.530   0.148  -1.058  -0.067  -2.122   0.219  -0.086   0.528  -1.219   0.639   0.176  -0.095   0.007  -0.131
 -0.036  -0.530   2.703  -0.022  -2.733   0.025   0.275  -1.231   0.011   1.705  -1.810   1.068   0.096  -0.064   0.008  -0.091
 -2.089   0.148  -0.022   2.889   0.026   1.094  -0.093   0.019  -1.775  -0.014  -0.143   0.074   0.013   0.019  -0.133  -0.008
 -0.046  -1.058  -2.733   0.026   0.483   0.034   0.555   1.670  -0.023  -0.149  -3.809   1.808   0.409  -0.030   0.015  -0.166
 -0.603  -0.067   0.025   1.094   0.034   0.304   0.041  -0.017  -0.583  -0.023   0.095  -0.051  -0.006  -0.010   0.049   0.007
 -0.073  -2.122   0.275  -0.093   0.555   0.041   1.184  -0.096   0.054  -0.270   0.681  -0.385  -0.110   0.063  -0.005   0.080
  0.025   0.219  -1.231   0.019   1.670  -0.017  -0.096   0.609  -0.010  -1.080   1.168  -0.679  -0.047   0.063  -0.006   0.052
  1.069  -0.086   0.011  -1.775  -0.023  -0.583   0.054  -0.010   1.197   0.012   0.076  -0.037  -0.008  -0.013   0.069   0.004
  0.031   0.528   1.705  -0.014  -0.149  -0.023  -0.270  -1.080   0.012   0.132   2.484  -1.126  -0.280  -0.010  -0.010   0.096
 -0.164  -1.219  -1.810  -0.143  -3.809   0.095   0.681   1.168   0.076   2.484  -2.474   1.325   0.179   0.029   0.008  -0.159
  0.088   0.639   1.068   0.074   1.808  -0.051  -0.385  -0.679  -0.037  -1.126   1.325  -0.597  -0.094  -0.027  -0.004   0.079
  0.009   0.176   0.096   0.013   0.409  -0.006  -0.110  -0.047  -0.008  -0.280   0.179  -0.094  -0.043  -0.024  -0.001   0.036
  0.016  -0.095  -0.064   0.019  -0.030  -0.010   0.063   0.063  -0.013  -0.010   0.029  -0.027  -0.024  -0.026  -0.001   0.011
 -0.075   0.007   0.008  -0.133   0.015   0.049  -0.005  -0.006   0.069  -0.010   0.008  -0.004  -0.001  -0.001  -0.021   0.001
 -0.010  -0.131  -0.091  -0.008  -0.166   0.007   0.080   0.052   0.004   0.096  -0.159   0.079   0.036   0.011   0.001  -0.016
 -0.011  -0.044  -0.045  -0.012   0.036   0.007   0.032   0.026   0.007  -0.016   0.040  -0.029   0.007   0.025  -0.000   0.001
  0.032  -0.008  -0.004  -0.031  -0.009  -0.009   0.005   0.003   0.036   0.006  -0.001   0.000   0.001  -0.000   0.025  -0.000


------------------------ aborting loop because EDIFF is reached ----------------------------------------


    CHARGE:  cpu time    1.09: real time    1.09
    FORLOC:  cpu time    0.01: real time    0.01
    FORNL :  cpu time   20.46: real time   20.47
    STRESS:  cpu time   27.56: real time   27.57
    FORCOR:  cpu time    0.09: real time    0.10
    FORHAR:  cpu time    0.02: real time    0.02
    MIXING:  cpu time    0.01: real time    0.01

  FORCE on cell =-STRESS in cart. coord.  units (eV):
  Direction    XX          YY          ZZ          XY          YZ          ZX
  --------------------------------------------------------------------------------------
  Alpha Z   612.30704   612.30704   612.30704
  Ewald   79090.45060-66240.01652 53692.04527     0.66266  8597.38367   -23.70573
  Hartree164997.48279************140423.87185     0.03947  8518.95063   -12.13598
  E(xc)   -1509.71310 -1513.59619 -1506.23784     0.06534    -2.25899     0.12450
  Local  ************140110.54015************    -1.32212-16529.55952    34.71753
  n-local   434.79162   508.80395   395.05659    -1.77442    39.13271    -0.47491
  augment   815.52279   782.23808   834.40447     1.38776   -11.78452     0.25759
  Kinetic  5057.32230  5027.51361  5084.37884    -0.05246   -23.66216     1.00003
  Fock        0.00000     0.00000     0.00000     0.00000     0.00000     0.00000
  -------------------------------------------------------------------------------------
  Total   64451.28187-57950.28753 62073.10475    -0.99377   588.20181    -0.21697
  in kB  103839.52620-93365.56583100007.96881    -1.60109   947.67079    -0.34957
  external pressure =    36827.31 kB  Pullay stress =        0.00 kB


 VOLUME and BASIS-vectors are now :
 -----------------------------------------------------------------------------
  energy-cutoff  :      520.00
  volume of cell :      994.44
      direct lattice vectors                 reciprocal lattice vectors
     2.835480000  0.000000000  0.000000000     0.352673974  0.000000000 -0.006053738
     0.000000000 48.656200000  0.000000000     0.000000000  0.020552365  0.000000000
     0.123727120  0.000000000  7.207998170     0.000000000  0.000000000  0.138734774

  length of vectors
     2.835480000 48.656200000  7.209059996     0.352725927  0.020552365  0.138734774


 FORCES acting on ions
    electron-ion (+dipol)            ewald-force                    non-local-force                 convergence-correction
 -----------------------------------------------------------------------------------------------
   -.316E+00 0.322E+04 0.275E+03   0.354E+00 -.197E+04 -.237E+03   0.145E+00 -.172E+02 -.951E+01   -.288E-01 -.124E+04 -.362E+02
   0.122E-01 -.147E+04 -.303E+02   0.961E-05 0.385E+02 -.177E+00   0.389E-01 -.258E+01 0.335E+00   -.186E-01 0.143E+04 0.302E+02
   0.870E-01 -.945E+03 -.280E+01   -.569E-06 -.204E+03 -.272E-02   0.271E+00 -.253E+01 0.331E+00   -.458E-01 0.115E+04 0.247E+01
   0.400E+00 -.948E+03 -.635E+02   -.707E+00 0.181E+04 0.133E+03   -.554E-02 -.101E+01 0.347E+00   0.199E+00 -.874E+03 -.649E+02
   -.724E-02 -.465E+03 -.941E+01   0.317E-06 -.446E+03 0.288E-02   0.264E-01 -.223E+01 0.417E+00   -.122E-01 0.912E+03 0.884E+01
   0.656E-01 -.134E+04 -.250E+02   -.130E+00 0.149E+04 0.557E+01   0.533E-02 -.456E+00 0.278E+00   0.373E-01 -.151E+03 0.176E+02
   0.463E-01 0.745E+02 -.783E+01   -.152E-06 -.688E+03 0.925E-02   0.233E+00 -.182E+01 0.461E+00   -.303E-01 0.615E+03 0.805E+01
   -.569E-01 -.168E+04 -.359E+02   0.539E-01 0.124E+04 -.521E+01   0.145E-01 0.832E+00 0.225E+00   -.302E-02 0.431E+03 0.388E+02
   -.913E-03 0.661E+03 -.725E+01   -.141E-06 -.930E+03 0.554E-01   -.137E+00 0.530E+00 0.452E+00   -.180E-01 0.267E+03 0.664E+01
   0.474E-01 -.187E+04 -.430E+02   -.283E-01 0.998E+03 0.582E-01   0.874E-02 0.647E+00 0.465E+00   -.741E-02 0.868E+03 0.410E+02
   -.134E-01 0.127E+04 -.100E+02   0.103E-05 -.117E+04 0.423E-01   -.142E-01 0.163E+01 0.177E+00   0.110E-01 -.101E+03 0.957E+01
   -.692E-01 -.185E+04 0.371E+01   0.222E-01 0.762E+03 -.816E+01   -.118E-01 -.258E+00 -.444E+00   0.424E-01 0.109E+04 0.479E+01
   -.542E-01 0.194E+04 0.120E+02   0.134E-04 -.141E+04 -.321E+01   -.791E-02 0.164E+01 -.581E+00   0.500E-01 -.534E+03 -.839E+01
   0.204E+00 -.187E+04 0.476E+01   -.246E+00 0.543E+03 -.149E+02   0.303E-02 0.724E+00 -.585E+00   0.523E-01 0.132E+04 0.985E+01
   0.280E-01 0.254E+04 0.467E+02   -.822E-02 -.165E+04 -.397E+02   0.899E-02 0.149E+01 -.631E+00   -.226E-01 -.885E+03 -.677E+01
   -.349E-01 -.181E+04 -.386E+02   -.154E-02 0.280E+03 -.196E+01   -.322E-02 0.503E+00 -.141E+00   0.221E-01 0.152E+04 0.399E+02
   -.108E+01 -.898E+03 0.517E+03   0.933E+00 -.588E+02 -.419E+03   -.116E+00 -.621E+01 0.183E+02   0.309E+00 0.964E+03 -.116E+03
   -.647E+00 -.978E+03 0.191E+03   0.881E+00 0.159E+04 -.387E+03   0.755E-01 0.253E+01 -.487E+01   -.165E+00 -.610E+03 0.189E+03
   0.100E+01 -.720E+03 -.523E+03   -.933E+00 -.290E+03 0.419E+03   0.189E+00 0.282E+01 -.181E+02   -.325E+00 0.101E+04 0.122E+03
   -.225E+00 -.792E+03 -.242E+03   0.239E+00 0.154E+04 0.497E+03   0.660E-01 -.155E+01 0.531E+01   -.165E-01 -.752E+03 -.243E+03
   -.101E+01 -.133E+04 0.496E+03   0.933E+00 0.149E+03 -.419E+03   -.312E+00 -.108E+02 0.188E+02   0.358E+00 0.119E+04 -.954E+02
   0.139E+00 -.658E+03 0.763E+02   -.264E+00 0.183E+04 -.161E+03   -.139E-01 0.603E+01 -.445E+01   0.911E-01 -.115E+04 0.767E+02
   0.985E+00 -.278E+03 -.507E+03   -.933E+00 -.498E+03 0.419E+03   0.191E+00 0.549E+01 -.163E+02   -.260E+00 0.769E+03 0.105E+03
   0.254E+00 -.103E+04 -.257E+03   -.348E+00 0.120E+04 0.438E+03   -.284E-01 -.194E-01 0.578E+01   0.476E-01 -.167E+03 -.171E+03
   -.111E+01 -.846E+01 0.559E+03   0.933E+00 -.474E+03 -.419E+03   -.146E+00 -.722E+01 0.139E+02   0.381E+00 0.490E+03 -.156E+03
   -.342E+00 -.158E+04 0.253E+03   0.640E+00 0.118E+04 -.427E+03   -.953E-01 -.175E+01 0.436E+01   -.127E+00 0.408E+03 0.162E+03
   0.109E+01 0.131E+03 -.558E+03   -.933E+00 -.705E+03 0.419E+03   0.145E+00 0.479E+01 -.142E+02   -.342E+00 0.568E+03 0.155E+03
   0.461E+00 -.127E+04 -.273E+03   -.619E+00 0.950E+03 0.426E+03   0.117E-01 0.364E+00 0.606E+00   0.763E-01 0.318E+03 -.143E+03
   -.993E+00 -.527E+03 0.506E+03   0.933E+00 -.266E+03 -.419E+03   -.157E+00 -.631E+01 0.165E+02   0.253E+00 0.802E+03 -.104E+03
   -.569E+00 -.130E+04 0.243E+03   0.621E+00 0.140E+04 -.436E+03   0.752E-01 0.166E+01 -.338E+01   -.154E-01 -.960E+02 0.183E+03
   0.131E+01 0.684E+03 -.546E+03   -.933E+00 -.913E+03 0.419E+03   0.202E+00 0.526E+01 -.133E+02   -.603E+00 0.221E+03 0.142E+03
   0.451E+00 -.146E+04 -.323E+03   -.652E+00 0.744E+03 0.422E+03   0.495E-01 0.122E+01 -.803E+01   0.609E-01 0.715E+03 -.849E+02
   -.135E+01 0.101E+04 0.592E+03   0.933E+00 -.888E+03 -.420E+03   -.179E+00 -.566E+01 0.123E+02   0.618E+00 -.115E+03 -.186E+03
   -.367E+00 -.168E+04 0.363E+03   0.643E+00 0.756E+03 -.427E+03   -.992E-01 -.711E+00 0.143E+02   -.102E+00 0.927E+03 0.476E+02
   0.121E+01 0.116E+04 -.591E+03   -.933E+00 -.112E+04 0.420E+03   0.206E+00 0.760E+01 -.121E+02   -.506E+00 -.481E+02 0.186E+03
   0.487E+00 -.149E+04 -.363E+03   -.670E+00 0.541E+03 0.421E+03   0.118E+00 0.410E+01 -.148E+02   -.190E-01 0.946E+03 -.411E+02
   -.135E+01 0.445E+03 0.544E+03   0.933E+00 -.681E+03 -.419E+03   -.164E+00 -.259E+01 0.136E+02   0.619E+00 0.240E+03 -.140E+03
   -.461E+00 -.172E+04 0.303E+03   0.685E+00 0.968E+03 -.421E+03   -.123E+00 -.418E+01 0.135E+02   -.593E-01 0.761E+03 0.101E+03
   0.128E+01 0.175E+04 -.587E+03   -.933E+00 -.133E+04 0.420E+03   0.174E+00 0.433E+01 -.125E+02   -.538E+00 -.434E+03 0.181E+03
   0.490E+00 -.144E+04 -.327E+03   -.585E+00 0.352E+03 0.419E+03   0.121E+00 0.530E+01 -.158E+02   -.110E+00 0.108E+04 -.739E+02
   -.128E+01 0.211E+04 0.589E+03   0.102E+01 -.135E+04 -.455E+03   -.110E+00 -.113E+00 0.168E+02   0.418E+00 -.757E+03 -.150E+03
   -.814E+00 -.168E+04 0.382E+03   0.933E+00 0.357E+03 -.420E+03   -.202E+00 -.110E+02 0.188E+02   0.988E-01 0.133E+04 0.188E+02
   0.118E+01 0.228E+04 -.537E+03   -.934E+00 -.152E+04 0.411E+03   0.134E+00 0.545E+01 -.170E+02   -.423E+00 -.767E+03 0.143E+03
   0.519E+00 -.141E+04 -.377E+03   -.928E+00 0.122E+03 0.417E+03   0.191E+00 0.506E+01 -.192E+02   0.168E+00 0.129E+04 -.206E+02
   -.113E+01 0.159E+04 0.590E+03   0.932E+00 -.110E+04 -.426E+03   -.207E+00 -.681E+01 0.126E+02   0.411E+00 -.487E+03 -.178E+03
   -.509E+00 -.174E+04 0.330E+03   0.928E+00 0.568E+03 -.424E+03   -.211E+00 -.662E+01 0.138E+02   -.143E+00 0.118E+04 0.772E+02
   0.118E+01 0.268E+04 -.410E+03   -.899E+00 -.167E+04 0.285E+03   0.140E+00 0.866E+01 -.139E+02   -.465E+00 -.101E+04 0.141E+03
   0.827E+00 -.119E+04 -.493E+03   -.933E+00 -.830E+02 0.419E+03   0.298E+00 0.341E+01 -.197E+02   -.155E+00 0.127E+04 0.928E+02
 -----------------------------------------------------------------------------------------------
   -.424E-01 -.159E+05 -.309E+03   -.242E-13 -.151E-11 -.398E-12   0.798E+00 -.175E+02 -.168E+02   -.241E+00 0.159E+05 0.320E+03
 
 
 POSITION                                       TOTAL-FORCE (eV/Angst)
 -----------------------------------------------------------------------------------
      0.00000      5.00000      0.00000         0.144155    -12.752906     -6.851284
      0.00000     24.32810      0.00000         0.021823     -0.515597      0.150313
      1.52600     21.91209      6.30700         0.301030      0.382898      0.120628
      1.51867     41.28963      6.33432        -0.124160    -12.210242      5.256142
      0.09280     19.49608      5.40600        -0.003825     -0.455134     -0.038376
      2.92514     38.80118      5.42027        -0.032200     -2.471268     -1.481212
      1.49507     17.08006      4.50500         0.238687     -0.215756      0.811150
      1.49523     36.42731      4.50662        -0.002275     -3.253305     -1.956473
      0.06186     14.66405      3.60400        -0.166819     -0.671924      0.017683
      0.06210     34.01454      3.60456         0.009680     -2.911094     -1.356605
      1.46414     12.24804      2.70300        -0.027372      0.063315     -0.118779
      1.46444     31.59772      2.67866        -0.027122     -0.762904      0.020922
      0.03093      9.83202      1.80200        -0.022791      1.599950     -0.014880
      0.03093     29.16012      1.80200         0.002595     -1.312207     -0.725625
      1.43321      7.41601      0.90100        -0.004622      0.496355     -0.291601
      1.43321     26.74411      0.90100        -0.028244     -1.224527     -0.693760
      0.10308     21.32802      5.10373         0.032447      1.255638      0.004072
      0.09448     40.65096      5.13180         0.133859      5.913325    -12.484442
      2.82519     22.49616      0.30227        -0.076609     -1.359744      0.156339
      2.81132     41.31842      0.22795         0.053173     -0.800257     16.971502
      1.53629     23.74403      6.00473        -0.042621      0.373414      0.691041
      1.51619     42.74340      5.68692        -0.058588     24.359057    -12.116300
      1.51571     20.08014      6.60926        -0.027431     -1.173233      0.580724
      1.50883     39.23356      6.54809        -0.085799     -0.353303     16.029157
      0.07215     16.49599      3.30173         0.043726      0.639200     -2.223778
      0.07435     35.93233      3.33955         0.064520      1.658028     -7.158483
      2.91799     17.66413      5.70827        -0.055427     -0.988487      2.218127
      2.91583     36.89744      5.68360        -0.081194     -2.624633     10.821134
      1.50536     18.91201      4.20273         0.025542      2.518264     -0.488294
      1.50409     38.33408      4.22072         0.101117      5.187343    -12.595692
      1.48478     15.24812      4.80727        -0.030822     -2.225271      2.327833
      1.48302     34.51134      4.77090        -0.101694     -1.533066      5.347138
      0.04122     11.66397      1.49973         0.012485      0.737406     -1.579699
      0.04351     31.08916      1.51710         0.063746      1.326465     -2.455516
      2.88706     12.83210      3.90627        -0.030951     -1.010240      2.060372
      2.88546     32.08877      3.85199        -0.095816      0.132873      2.473393
      1.47442     14.07998      2.40073         0.026049      2.051691     -1.684844
      1.47651     33.51287      2.43639         0.030721      1.539265     -2.764698
      1.45385     10.41609      3.00527        -0.031294     -1.972913      1.501559
      1.45132     29.66694      2.94760        -0.095660      0.480845      2.903733
      0.13401      6.83195      6.90573         0.036557      4.294825      0.778826
      0.13401     26.16004      6.90573         0.004747     -0.772756     -0.511315
      2.85612      8.00008      2.10427        -0.051635     -1.364966     -0.576202
      2.85612     27.32818      2.10427        -0.060984     -1.201874      0.937635
      1.44349      9.24796      0.59873        -0.007564      0.418155     -1.290303
      1.44349     28.57606      0.59873         0.054537      2.081240     -1.934926
      1.42292      5.58407      1.20327        -0.054216      0.968967      1.579723
      1.42292     24.91217      1.20327         0.026539     -2.340915     -0.366058
 -----------------------------------------------------------------------------------
    total drift:                                0.514549     -7.822536     -5.775516


--------------------------------------------------------------------------------------------------------



  FREE ENERGIE OF THE ION-ELECTRON SYSTEM (eV)
  ---------------------------------------------------
  free  energy   TOTEN  =      -534.76097371 eV

  energy  without entropy=     -534.76097371  energy(sigma->0) =     -534.76097371
 


--------------------------------------------------------------------------------------------------------


    POTLOK:  cpu time    0.10: real time    0.10


--------------------------------------------------------------------------------------------------------


     LOOP+:  cpu time 3517.72: real time 3530.24
    4ORBIT:  cpu time    0.00: real time    0.00
 BZINTS: Fermi energy: -0.969292;304.000000 electrons
         Band energy:***********;  BLOECHL correction: -0.011152

 total amount of memory used by VASP on root node   178269. kBytes
========================================================================

   base      :      30000. kBytes
   nonl-proj :      41882. kBytes
   fftplans  :       2975. kBytes
   grid      :       7277. kBytes
   one-center:        373. kBytes
   wavefun   :      95762. kBytes
 
  
  
 General timing and accounting informations for this job:
 ========================================================
  
                  Total CPU time used (sec):     3537.809
                            User time (sec):     3503.517
                          System time (sec):       34.292
                         Elapsed time (sec):     3556.249
  
                   Maximum memory used (kb):      430984.
                   Average memory used (kb):           0.
  
                          Minor page faults:        23359
                          Major page faults:            0
                 Voluntary context switches:       569826
