 vasp.5.3.3 18Dez12 (build May 12 2016 12:04:25) complex                        
  
 executed on             LinuxIFC date 2019.05.18  10:31:18
 running on   32 total cores
 distrk:  each k-point on   32 cores,    1 groups
 distr:  one band on NCORES_PER_BAND=   4 cores,    8 groups


--------------------------------------------------------------------------------------------------------


 INCAR:
 POTCAR:    PAW_PBE Mn 06Sep2000                  
 POTCAR:    PAW_PBE O 08Apr2002                   
 POTCAR:    PAW_PBE Mn 06Sep2000                  
  local pseudopotential read in
  partial core-charges read in
  partial kinetic energy density read in
  atomic valenz-charges read in
  non local Contribution for L=           2  read in
    real space projection operators read in
  non local Contribution for L=           2  read in
    real space projection operators read in
  non local Contribution for L=           0  read in
    real space projection operators read in
  non local Contribution for L=           0  read in
    real space projection operators read in
  non local Contribution for L=           1  read in
    real space projection operators read in
  non local Contribution for L=           1  read in
    real space projection operators read in
    PAW grid and wavefunctions read in
 
   number of l-projection  operators is LMAX  =           6
   number of lm-projection operators is LMMAX =          18
 
 POTCAR:    PAW_PBE O 08Apr2002                   
  local pseudopotential read in
  partial core-charges read in
  partial kinetic energy density read in
  kinetic energy density of atom read in
  atomic valenz-charges read in
  non local Contribution for L=           0  read in
    real space projection operators read in
  non local Contribution for L=           0  read in
    real space projection operators read in
  non local Contribution for L=           1  read in
    real space projection operators read in
  non local Contribution for L=           1  read in
    real space projection operators read in
    PAW grid and wavefunctions read in
 
   number of l-projection  operators is LMAX  =           4
   number of lm-projection operators is LMMAX =           8
 

 ----------------------------------------------------------------------------- 
|                                                                             |
|  ADVICE TO THIS USER RUNNING 'VASP/VAMP'   (HEAR YOUR MASTER'S VOICE ...):  |
|                                                                             |
|      You enforced a specific xc-type in the INCAR file,                     |
|      a different type was found on the POTCAR file                          |
|          I HOPE YOU KNOW, WHAT YOU ARE  DOING                               |
|                                                                             |
 ----------------------------------------------------------------------------- 

  PAW_PBE Mn 06Sep2000                  :
 energy of atom  1       EATOM= -416.7541
 kinetic energy error for atom=    0.0024 (will be added to EATOM!!)
  PAW_PBE O 08Apr2002                   :
 energy of atom  2       EATOM= -432.3788
 kinetic energy error for atom=    0.0208 (will be added to EATOM!!)
 
 
 POSCAR: (Mn O2)4  (Pnma) ~  (Pearson #541374)_1 
  positions in direct lattice
  velocities in cartesian coordinates
  No initial velocities read in
 exchange correlation table for  LEXCH =       14
   RHO(1)=    0.500       N(1)  =     2000
   RHO(2)=  100.500       N(2)  =     4000
 


--------------------------------------------------------------------------------------------------------


 ion  position               nearest neighbor table
   1  0.136  0.250  0.022-   8 1.86   8 1.86  10 1.89   5 1.91  12 1.92  12 1.92   3 2.91   3 2.91

   2  0.636  0.250  0.478-   7 1.86   7 1.86   9 1.89   6 1.91  11 1.92  11 1.92   4 2.91   4 2.91

   3  0.864  0.750  0.978-   6 1.86   6 1.86  12 1.89   7 1.91  10 1.92  10 1.92   1 2.91   1 2.91

   4  0.364  0.750  0.522-   5 1.86   5 1.86  11 1.89   8 1.91   9 1.92   9 1.92   2 2.91   2 2.91

   5  0.275  0.250  0.333-   4 1.86   4 1.86   1 1.91
   6  0.775  0.250  0.167-   3 1.86   3 1.86   2 1.91
   7  0.725  0.750  0.667-   2 1.86   2 1.86   3 1.91
   8  0.225  0.750  0.833-   1 1.86   1 1.86   4 1.91
   9  0.467  0.250  0.711-   2 1.89   4 1.92   4 1.92
  10  0.967  0.250  0.789-   1 1.89   3 1.92   3 1.92
  11  0.533  0.750  0.289-   4 1.89   2 1.92   2 1.92
  12  0.033  0.750  0.211-   3 1.89   1 1.92   1 1.92
 
  LATTYP: Found a simple orthorhombic cell.
 ALAT       =     2.8660000000
 B/A-ratio  =     1.5816468946
 C/A-ratio  =     3.2344731333
  
  Lattice vectors:
  
 A1 = (   0.0000000000,   2.8660000000,   0.0000000000)
 A2 = (   0.0000000000,   0.0000000000,  -4.5330000000)
 A3 = (  -9.2700000000,   0.0000000000,   0.0000000000)


Analysis of symmetry for initial positions (statically):
=====================================================================
 Subroutine PRICEL returns:
 Original cell was already a primitive cell.
 

 Routine SETGRP: Setting up the symmetry group for a 
 simple orthorhombic supercell.


 Subroutine GETGRP returns: Found  8 space group operations
 (whereof  2 operations were pure point group operations)
 out of a pool of  8 trial point group operations.


The static configuration has the point symmetry S_2 .
 The point group associated with its full space group is D_2h.


Analysis of symmetry for dynamics (positions and initial velocities):
=====================================================================
 Subroutine PRICEL returns:
 Original cell was already a primitive cell.
 

 Routine SETGRP: Setting up the symmetry group for a 
 simple orthorhombic supercell.


 Subroutine GETGRP returns: Found  8 space group operations
 (whereof  2 operations were pure point group operations)
 out of a pool of  8 trial point group operations.


The dynamic configuration has the point symmetry S_2 .
 The point group associated with its full space group is D_2h.


Analysis of magnetic symmetry:
=====================================================================

 Subroutine MAGSYM returns: Found  8 space group operations
 (whereof  2 operations were pure point group operations)
 out of a pool of  8 trial space group operations
 (whereof  2 operations were pure point group operations)
 and found also     1 'primitive' translations


The magnetic configuration has the point symmetry S_2 .
 The point group associated with its full space group is D_2h.


 irot  :   1
 --------------------------------------------------------------------
 isymop:   1   0   0
           0   1   0
           0   0   1

 gtrans:     0.0000000     0.0000000     0.0000000

 ptrans:     0.0000000     0.0000000     0.0000000
 rotmap:
 (   1->   1)  (   2->   2)  (   3->   3)  (   4->   4)  (   5->   5) 
 (   6->   6)  (   7->   7)  (   8->   8)  (   9->   9)  (  10->  10) 
 (  11->  11)  (  12->  12) 


 irot  :   2
 --------------------------------------------------------------------
 isymop:  -1   0   0
           0  -1   0
           0   0  -1

 gtrans:     0.0000000     0.0000000     0.0000000

 ptrans:     0.0000000     0.0000000     0.0000000
 rotmap:
 (   1->   3)  (   2->   4)  (   3->   1)  (   4->   2)  (   5->   7) 
 (   6->   8)  (   7->   5)  (   8->   6)  (   9->  11)  (  10->  12) 
 (  11->   9)  (  12->  10) 


 irot  :   3
 --------------------------------------------------------------------
 isymop:   1   0   0
           0  -1   0
           0   0  -1

 gtrans:    -0.5000000     0.5000000    -0.5000000

 ptrans:     0.0000000     0.0000000     0.0000000
 rotmap:
 (   1->   2)  (   2->   1)  (   3->   4)  (   4->   3)  (   5->   6) 
 (   6->   5)  (   7->   8)  (   8->   7)  (   9->  10)  (  10->   9) 
 (  11->  12)  (  12->  11) 


 irot  :   4
 --------------------------------------------------------------------
 isymop:  -1   0   0
           0   1   0
           0   0   1

 gtrans:    -0.5000000     0.5000000    -0.5000000

 ptrans:     0.0000000     0.0000000     0.0000000
 rotmap:
 (   1->   4)  (   2->   3)  (   3->   2)  (   4->   1)  (   5->   8) 
 (   6->   7)  (   7->   6)  (   8->   5)  (   9->  12)  (  10->  11) 
 (  11->  10)  (  12->   9) 


 irot  :   5
 --------------------------------------------------------------------
 isymop:  -1   0   0
           0  -1   0
           0   0   1

 gtrans:    -0.5000000     0.0000000    -0.5000000

 ptrans:     0.0000000     0.0000000     0.0000000
 rotmap:
 (   1->   4)  (   2->   3)  (   3->   2)  (   4->   1)  (   5->   8) 
 (   6->   7)  (   7->   6)  (   8->   5)  (   9->  12)  (  10->  11) 
 (  11->  10)  (  12->   9) 


 irot  :   6
 --------------------------------------------------------------------
 isymop:   1   0   0
           0   1   0
           0   0  -1

 gtrans:    -0.5000000     0.0000000    -0.5000000

 ptrans:     0.0000000     0.0000000     0.0000000
 rotmap:
 (   1->   2)  (   2->   1)  (   3->   4)  (   4->   3)  (   5->   6) 
 (   6->   5)  (   7->   8)  (   8->   7)  (   9->  10)  (  10->   9) 
 (  11->  12)  (  12->  11) 


 irot  :   7
 --------------------------------------------------------------------
 isymop:  -1   0   0
           0   1   0
           0   0  -1

 gtrans:     0.0000000     0.5000000     0.0000000

 ptrans:     0.0000000     0.0000000     0.0000000
 rotmap:
 (   1->   3)  (   2->   4)  (   3->   1)  (   4->   2)  (   5->   7) 
 (   6->   8)  (   7->   5)  (   8->   6)  (   9->  11)  (  10->  12) 
 (  11->   9)  (  12->  10) 


 irot  :   8
 --------------------------------------------------------------------
 isymop:   1   0   0
           0  -1   0
           0   0   1

 gtrans:     0.0000000     0.5000000     0.0000000

 ptrans:     0.0000000     0.0000000     0.0000000
 rotmap:
 (   1->   1)  (   2->   2)  (   3->   3)  (   4->   4)  (   5->   5) 
 (   6->   6)  (   7->   7)  (   8->   8)  (   9->   9)  (  10->  10) 
 (  11->  11)  (  12->  12) 
 
 
 KPOINTS: Automatic mesh                          

Automatic generation of k-mesh.
Space group operators:
 irot       det(A)        alpha          n_x          n_y          n_z        tau_x        tau_y        tau_z
    1     1.000000     0.000000     1.000000     0.000000     0.000000     0.000000     0.000000     0.000000
    2    -1.000000     0.000000     1.000000     0.000000     0.000000     0.000000     0.000000     0.000000
    3     1.000000   180.000000     1.000000     0.000000     0.000000    -0.500000     0.500000    -0.500000
    4    -1.000000   180.000000     1.000000     0.000000     0.000000    -0.500000     0.500000    -0.500000
    5     1.000000   180.000000     0.000000     0.000000     1.000000    -0.500000     0.000000    -0.500000
    6    -1.000000   180.000000     0.000000     0.000000     1.000000    -0.500000     0.000000    -0.500000
    7     1.000000   180.000000     0.000000     1.000000     0.000000     0.000000     0.500000     0.000000
    8    -1.000000   180.000000     0.000000     1.000000     0.000000     0.000000     0.500000     0.000000
 
 Subroutine IBZKPT returns following result:
 ===========================================
 
 Found     40 irreducible k-points:
 
 Following reciprocal coordinates:
            Coordinates               Weight
  0.000000  0.000000  0.000000      1.000000
  0.333333  0.000000  0.000000      2.000000
  0.000000  0.111111  0.000000      2.000000
  0.333333  0.111111  0.000000      4.000000
  0.000000  0.222222  0.000000      2.000000
  0.333333  0.222222  0.000000      4.000000
  0.000000  0.333333  0.000000      2.000000
  0.333333  0.333333  0.000000      4.000000
  0.000000  0.444444  0.000000      2.000000
  0.333333  0.444444  0.000000      4.000000
  0.000000  0.000000  0.166667      2.000000
  0.333333  0.000000  0.166667      4.000000
  0.000000  0.111111  0.166667      4.000000
  0.333333  0.111111  0.166667      8.000000
  0.000000  0.222222  0.166667      4.000000
  0.333333  0.222222  0.166667      8.000000
  0.000000  0.333333  0.166667      4.000000
  0.333333  0.333333  0.166667      8.000000
  0.000000  0.444444  0.166667      4.000000
  0.333333  0.444444  0.166667      8.000000
  0.000000  0.000000  0.333333      2.000000
  0.333333  0.000000  0.333333      4.000000
  0.000000  0.111111  0.333333      4.000000
  0.333333  0.111111  0.333333      8.000000
  0.000000  0.222222  0.333333      4.000000
  0.333333  0.222222  0.333333      8.000000
  0.000000  0.333333  0.333333      4.000000
  0.333333  0.333333  0.333333      8.000000
  0.000000  0.444444  0.333333      4.000000
  0.333333  0.444444  0.333333      8.000000
  0.000000  0.000000  0.500000      1.000000
  0.333333  0.000000  0.500000      2.000000
  0.000000  0.111111  0.500000      2.000000
  0.333333  0.111111  0.500000      4.000000
  0.000000  0.222222  0.500000      2.000000
  0.333333  0.222222  0.500000      4.000000
  0.000000  0.333333  0.500000      2.000000
  0.333333  0.333333  0.500000      4.000000
  0.000000  0.444444  0.500000      2.000000
  0.333333  0.444444  0.500000      4.000000
 
 Following cartesian coordinates:
            Coordinates               Weight
  0.000000  0.000000  0.000000      1.000000
  0.035958  0.000000  0.000000      2.000000
  0.000000  0.038769  0.000000      2.000000
  0.035958  0.038769  0.000000      4.000000
  0.000000  0.077537  0.000000      2.000000
  0.035958  0.077537  0.000000      4.000000
  0.000000  0.116306  0.000000      2.000000
  0.035958  0.116306  0.000000      4.000000
  0.000000  0.155075  0.000000      2.000000
  0.035958  0.155075  0.000000      4.000000
  0.000000  0.000000  0.036767      2.000000
  0.035958  0.000000  0.036767      4.000000
  0.000000  0.038769  0.036767      4.000000
  0.035958  0.038769  0.036767      8.000000
  0.000000  0.077537  0.036767      4.000000
  0.035958  0.077537  0.036767      8.000000
  0.000000  0.116306  0.036767      4.000000
  0.035958  0.116306  0.036767      8.000000
  0.000000  0.155075  0.036767      4.000000
  0.035958  0.155075  0.036767      8.000000
  0.000000  0.000000  0.073535      2.000000
  0.035958  0.000000  0.073535      4.000000
  0.000000  0.038769  0.073535      4.000000
  0.035958  0.038769  0.073535      8.000000
  0.000000  0.077537  0.073535      4.000000
  0.035958  0.077537  0.073535      8.000000
  0.000000  0.116306  0.073535      4.000000
  0.035958  0.116306  0.073535      8.000000
  0.000000  0.155075  0.073535      4.000000
  0.035958  0.155075  0.073535      8.000000
  0.000000  0.000000  0.110302      1.000000
  0.035958  0.000000  0.110302      2.000000
  0.000000  0.038769  0.110302      2.000000
  0.035958  0.038769  0.110302      4.000000
  0.000000  0.077537  0.110302      2.000000
  0.035958  0.077537  0.110302      4.000000
  0.000000  0.116306  0.110302      2.000000
  0.035958  0.116306  0.110302      4.000000
  0.000000  0.155075  0.110302      2.000000
  0.035958  0.155075  0.110302      4.000000
 


--------------------------------------------------------------------------------------------------------




 Dimension of arrays:
   k-points           NKPTS =     40   k-points in BZ     NKDIM =     40   number of bands    NBANDS=     48
   number of dos      NEDOS =    301   number of ions     NIONS =     12
   non local maximal  LDIM  =      6   non local SUM 2l+1 LMDIM =     18
   total plane-waves  NPLWV =  24192
   max r-space proj   IRMAX =      1   max aug-charges    IRDMAX=   7584
   dimension x,y,z NGX =    54 NGY =   16 NGZ =   28
   dimension x,y,z NGXF=   108 NGYF=   32 NGZF=   56
   support grid    NGXF=   108 NGYF=   32 NGZF=   56
   ions per type =               4   8
 NGX,Y,Z   is equivalent  to a cutoff of   9.68,  9.28, 10.27 a.u.
 NGXF,Y,Z  is equivalent  to a cutoff of  19.37, 18.56, 20.54 a.u.


 I would recommend the setting:
   dimension x,y,z NGX =    52 NGY =   16 NGZ =   25
 SYSTEM =  (Mn O2)4  (Pnma) ~  (Pearson            
 POSCAR =  (Mn O2)4  (Pnma) ~  (Pearson #541374)_1 

 Startparameter for this run:
   NWRITE =      1    write-flag & timer
   PREC   = normal    normal or accurate (medium, high low for compatibility)
   ISTART =      0    job   : 0-new  1-cont  2-samecut
   ICHARG =      2    charge: 1-file 2-atom 10-const
   ISPIN  =      2    spin polarized calculation?
   LNONCOLLINEAR =      F non collinear calculations
   LSORBIT =      F    spin-orbit coupling
   INIWAV =      1    electr: 0-lowe 1-rand  2-diag
   LASPH  =      F    aspherical Exc in radial PAW
   METAGGA=      F    non-selfconsistent MetaGGA calc.

 Electronic Relaxation 1
   ENCUT  =  520.0 eV  38.22 Ry    6.18 a.u.  17.24  5.33  8.43*2*pi/ulx,y,z
   ENINI  =  520.0     initial cutoff
   ENAUG  =  605.4 eV  augmentation charge cutoff
   NELM   =     60;   NELMIN=  2; NELMDL= -5     # of ELM steps 
   EDIFF  = 0.1E-03   stopping-criterion for ELM
   LREAL  =      F    real-space projection
   NLSPLINE    = F    spline interpolate recip. space projectors
   LCOMPAT=      F    compatible to vasp.4.4
   GGA_COMPAT  = T    GGA compatible to vasp.4.4-vasp.4.6
   LMAXPAW     = -100 max onsite density
   LMAXMIX     =    2 max onsite mixed and CHGCAR
   VOSKOWN=      1    Vosko Wilk Nusair interpolation
   ROPT   =    0.00000   0.00000
 Ionic relaxation
   EDIFFG = 0.1E-02   stopping-criterion for IOM
   NSW    =    100    number of steps for IOM
   NBLOCK =      1;   KBLOCK =    100    inner block; outer block 
   IBRION =      2    ionic relax: 0-MD 1-quasi-New 2-CG
   NFREE  =      1    steps in history (QN), initial steepest desc. (CG)
   ISIF   =      3    stress and relaxation
   IWAVPR =     11    prediction:  0-non 1-charg 2-wave 3-comb
   ISYM   =      2    0-nonsym 1-usesym 2-fastsym
   LCORR  =      T    Harris-Foulkes like correction to forces

   POTIM  = 0.5000    time-step for ionic-motion
   TEIN   =    0.0    initial temperature
   TEBEG  =    0.0;   TEEND  =   0.0 temperature during run
   SMASS  =  -3.00    Nose mass-parameter (am)
   estimated Nose-frequenzy (Omega)   =  0.10E-29 period in steps =****** mass=  -0.196E-26a.u.
   SCALEE = 1.0000    scale energy and forces
   NPACO  =    256;   APACO  = 16.0  distance and # of slots for P.C.
   PSTRESS=    0.0 pullay stress

  Mass of Ions in am
   POMASS =  54.94 16.00
  Ionic Valenz
   ZVAL   =   7.00  6.00
  Atomic Wigner-Seitz radii
   RWIGS  =  -1.00 -1.00
  virtual crystal weights 
   VCA    =   1.00  1.00
   NELECT =      76.0000    total number of electrons
   NUPDOWN=      -1.0000    fix difference up-down

 DOS related values:
   EMIN   =  10.00;   EMAX   =-10.00  energy-range for DOS
   EFERMI =   0.00
   ISMEAR =     1;   SIGMA  =   0.20  broadening in eV -4-tet -1-fermi 0-gaus

 Electronic relaxation 2 (details)
   IALGO  =     38    algorithm
   LDIAG  =      T    sub-space diagonalisation (order eigenvalues)
   LSUBROT=      T    optimize rotation matrix (better conditioning)
   TURBO    =      0    0=normal 1=particle mesh
   IRESTART =      0    0=no restart 2=restart with 2 vectors
   NREBOOT  =      0    no. of reboots
   NMIN     =      0    reboot dimension
   EREF     =   0.00    reference energy to select bands
   IMIX   =      4    mixing-type and parameters
     AMIX     =   0.40;   BMIX     =  1.00
     AMIX_MAG =   1.60;   BMIX_MAG =  1.00
     AMIN     =   0.10
     WC   =   100.;   INIMIX=   1;  MIXPRE=   1;  MAXMIX= -45

 Intra band minimization:
   WEIMIN = 0.0010     energy-eigenvalue tresh-hold
   EBREAK =  0.52E-06  absolut break condition
   DEPER  =   0.30     relativ break condition  

   TIME   =   0.40     timestep for ELM

  volume/ion in A,a.u.               =      10.04        67.73
  Fermi-wavevector in a.u.,A,eV,Ry     =   1.404210  2.653573 26.828056  1.971807
  Thomas-Fermi vector in A             =   2.526795
 
 Write flags
   LWAVE  =      F    write WAVECAR
   LCHARG =      F    write CHGCAR
   LVTOT  =      F    write LOCPOT, total local potential
   LVHAR  =      F    write LOCPOT, Hartree potential only
   LELF   =      F    write electronic localiz. function (ELF)
   LORBIT =      0    0 simple, 1 ext, 2 COOP (PROOUT)


 Dipole corrections
   LMONO  =      F    monopole corrections only (constant potential shift)
   LDIPOL =      F    correct potential (dipole corrections)
   IDIPOL =      0    1-x, 2-y, 3-z, 4-all directions 
   EPSILON=  1.0000000 bulk dielectric constant

 Exchange correlation treatment:
   GGA     =    PS    GGA type
   LEXCH   =    14    internal setting for exchange type
   VOSKOWN=      1    Vosko Wilk Nusair interpolation
   LHFCALC =     F    Hartree Fock is set to
   LHFONE  =     F    Hartree Fock one center treatment
   AEXX    =    0.0000 exact exchange contribution

 Linear response parameters
   LEPSILON=     F    determine dielectric tensor
   LRPA    =     F    only Hartree local field effects (RPA)
   LNABLA  =     F    use nabla operator in PAW spheres
   LVEL    =     F    velocity operator in full k-point grid
   LINTERFAST=   F  fast interpolation
   KINTER  =     0    interpolate to denser k-point grid
   CSHIFT  =0.1000    complex shift for real part using Kramers Kronig
   OMEGAMAX=  -1.0    maximum frequency
   DEG_THRESHOLD= 0.2000000E-02 threshold for treating states as degnerate
   RTIME   =    0.100 relaxation time in fs

 Orbital magnetization related:
   ORBITALMAG=     F  switch on orbital magnetization
   LCHIMAG   =     F  perturbation theory with respect to B field
   DQ        =  0.001000  dq finite difference perturbation B field



--------------------------------------------------------------------------------------------------------


 conjugate gradient relaxation of ions
 charge density and potential will be updated during run
 spin polarized calculation
 Variant of blocked Davidson
 Davidson routine will perform the subspace rotation
 perform sub-space diagonalisation
    after iterative eigenvector-optimisation
 modified Broyden-mixing scheme, WC =      100.0
 initial mixing is a Kerker type mixing with AMIX =  0.4000 and BMIX =      1.0000
 Hartree-type preconditioning will be used
 using additional bands           10
 reciprocal scheme for non local part
 use partial core corrections
 calculate Harris-corrections to forces 
   (improved forces if not selfconsistent)
 use gradient corrections 
 use of overlap-Matrix (Vanderbilt PP)
 Methfessel and Paxton  Order N= 1 SIGMA  =   0.20


--------------------------------------------------------------------------------------------------------


  energy-cutoff  :      520.00
  volume of cell :      120.43
      direct lattice vectors                 reciprocal lattice vectors
     9.270000000  0.000000000  0.000000000     0.107874865  0.000000000  0.000000000
     0.000000000  2.866000000  0.000000000     0.000000000  0.348918353  0.000000000
     0.000000000  0.000000000  4.533000000     0.000000000  0.000000000  0.220604456

  length of vectors
     9.270000000  2.866000000  4.533000000     0.107874865  0.348918353  0.220604456


 
 k-points in units of 2pi/SCALE and weight: Automatic mesh                          
   0.00000000  0.00000000  0.00000000       0.006
   0.03595829  0.00000000  0.00000000       0.012
   0.00000000  0.03876871  0.00000000       0.012
   0.03595829  0.03876871  0.00000000       0.025
   0.00000000  0.07753741  0.00000000       0.012
   0.03595829  0.07753741  0.00000000       0.025
   0.00000000  0.11630612  0.00000000       0.012
   0.03595829  0.11630612  0.00000000       0.025
   0.00000000  0.15507482  0.00000000       0.012
   0.03595829  0.15507482  0.00000000       0.025
   0.00000000  0.00000000  0.03676741       0.012
   0.03595829  0.00000000  0.03676741       0.025
   0.00000000  0.03876871  0.03676741       0.025
   0.03595829  0.03876871  0.03676741       0.049
   0.00000000  0.07753741  0.03676741       0.025
   0.03595829  0.07753741  0.03676741       0.049
   0.00000000  0.11630612  0.03676741       0.025
   0.03595829  0.11630612  0.03676741       0.049
   0.00000000  0.15507482  0.03676741       0.025
   0.03595829  0.15507482  0.03676741       0.049
   0.00000000  0.00000000  0.07353482       0.012
   0.03595829  0.00000000  0.07353482       0.025
   0.00000000  0.03876871  0.07353482       0.025
   0.03595829  0.03876871  0.07353482       0.049
   0.00000000  0.07753741  0.07353482       0.025
   0.03595829  0.07753741  0.07353482       0.049
   0.00000000  0.11630612  0.07353482       0.025
   0.03595829  0.11630612  0.07353482       0.049
   0.00000000  0.15507482  0.07353482       0.025
   0.03595829  0.15507482  0.07353482       0.049
   0.00000000  0.00000000  0.11030223       0.006
   0.03595829  0.00000000  0.11030223       0.012
   0.00000000  0.03876871  0.11030223       0.012
   0.03595829  0.03876871  0.11030223       0.025
   0.00000000  0.07753741  0.11030223       0.012
   0.03595829  0.07753741  0.11030223       0.025
   0.00000000  0.11630612  0.11030223       0.012
   0.03595829  0.11630612  0.11030223       0.025
   0.00000000  0.15507482  0.11030223       0.012
   0.03595829  0.15507482  0.11030223       0.025
 
 k-points in reciprocal lattice and weights: Automatic mesh                          
   0.00000000  0.00000000  0.00000000       0.006
   0.33333333  0.00000000  0.00000000       0.012
   0.00000000  0.11111111  0.00000000       0.012
   0.33333333  0.11111111  0.00000000       0.025
   0.00000000  0.22222222  0.00000000       0.012
   0.33333333  0.22222222  0.00000000       0.025
   0.00000000  0.33333333  0.00000000       0.012
   0.33333333  0.33333333  0.00000000       0.025
   0.00000000  0.44444444  0.00000000       0.012
   0.33333333  0.44444444  0.00000000       0.025
   0.00000000  0.00000000  0.16666667       0.012
   0.33333333  0.00000000  0.16666667       0.025
   0.00000000  0.11111111  0.16666667       0.025
   0.33333333  0.11111111  0.16666667       0.049
   0.00000000  0.22222222  0.16666667       0.025
   0.33333333  0.22222222  0.16666667       0.049
   0.00000000  0.33333333  0.16666667       0.025
   0.33333333  0.33333333  0.16666667       0.049
   0.00000000  0.44444444  0.16666667       0.025
   0.33333333  0.44444444  0.16666667       0.049
   0.00000000  0.00000000  0.33333333       0.012
   0.33333333  0.00000000  0.33333333       0.025
   0.00000000  0.11111111  0.33333333       0.025
   0.33333333  0.11111111  0.33333333       0.049
   0.00000000  0.22222222  0.33333333       0.025
   0.33333333  0.22222222  0.33333333       0.049
   0.00000000  0.33333333  0.33333333       0.025
   0.33333333  0.33333333  0.33333333       0.049
   0.00000000  0.44444444  0.33333333       0.025
   0.33333333  0.44444444  0.33333333       0.049
   0.00000000  0.00000000  0.50000000       0.006
   0.33333333  0.00000000  0.50000000       0.012
   0.00000000  0.11111111  0.50000000       0.012
   0.33333333  0.11111111  0.50000000       0.025
   0.00000000  0.22222222  0.50000000       0.012
   0.33333333  0.22222222  0.50000000       0.025
   0.00000000  0.33333333  0.50000000       0.012
   0.33333333  0.33333333  0.50000000       0.025
   0.00000000  0.44444444  0.50000000       0.012
   0.33333333  0.44444444  0.50000000       0.025
 
 position of ions in fractional coordinates (direct lattice) 
   0.13600000  0.25000000  0.02200000
   0.63600000  0.25000000  0.47800000
   0.86400000  0.75000000  0.97800000
   0.36400000  0.75000000  0.52200000
   0.27500000  0.25000000  0.33300000
   0.77500000  0.25000000  0.16700000
   0.72500000  0.75000000  0.66700000
   0.22500000  0.75000000  0.83300000
   0.46700000  0.25000000  0.71100000
   0.96700000  0.25000000  0.78900000
   0.53300000  0.75000000  0.28900000
   0.03300000  0.75000000  0.21100000
 
 position of ions in cartesian coordinates  (Angst):
   1.26072000  0.71650000  0.09972600
   5.89572000  0.71650000  2.16677400
   8.00928000  2.14950000  4.43327400
   3.37428000  2.14950000  2.36622600
   2.54925000  0.71650000  1.50948900
   7.18425000  0.71650000  0.75701100
   6.72075000  2.14950000  3.02351100
   2.08575000  2.14950000  3.77598900
   4.32909000  0.71650000  3.22296300
   8.96409000  0.71650000  3.57653700
   4.94091000  2.14950000  1.31003700
   0.30591000  2.14950000  0.95646300
 


--------------------------------------------------------------------------------------------------------


 k-point  1 :   0.0000 0.0000 0.0000  plane waves:    3237
 k-point  2 :   0.3333 0.0000 0.0000  plane waves:    3240
 k-point  3 :   0.0000 0.1111 0.0000  plane waves:    3243
 k-point  4 :   0.3333 0.1111 0.0000  plane waves:    3263
 k-point  5 :   0.0000 0.2222 0.0000  plane waves:    3249
 k-point  6 :   0.3333 0.2222 0.0000  plane waves:    3242
 k-point  7 :   0.0000 0.3333 0.0000  plane waves:    3234
 k-point  8 :   0.3333 0.3333 0.0000  plane waves:    3238
 k-point  9 :   0.0000 0.4444 0.0000  plane waves:    3266
 k-point 10 :   0.3333 0.4444 0.0000  plane waves:    3255
 k-point 11 :   0.0000 0.0000 0.1667  plane waves:    3239
 k-point 12 :   0.3333 0.0000 0.1667  plane waves:    3257
 k-point 13 :   0.0000 0.1111 0.1667  plane waves:    3246
 k-point 14 :   0.3333 0.1111 0.1667  plane waves:    3259
 k-point 15 :   0.0000 0.2222 0.1667  plane waves:    3256
 k-point 16 :   0.3333 0.2222 0.1667  plane waves:    3237
 k-point 17 :   0.0000 0.3333 0.1667  plane waves:    3237
 k-point 18 :   0.3333 0.3333 0.1667  plane waves:    3240
 k-point 19 :   0.0000 0.4444 0.1667  plane waves:    3248
 k-point 20 :   0.3333 0.4444 0.1667  plane waves:    3246
 k-point 21 :   0.0000 0.0000 0.3333  plane waves:    3259
 k-point 22 :   0.3333 0.0000 0.3333  plane waves:    3251
 k-point 23 :   0.0000 0.1111 0.3333  plane waves:    3244
 k-point 24 :   0.3333 0.1111 0.3333  plane waves:    3256
 k-point 25 :   0.0000 0.2222 0.3333  plane waves:    3245
 k-point 26 :   0.3333 0.2222 0.3333  plane waves:    3243
 k-point 27 :   0.0000 0.3333 0.3333  plane waves:    3242
 k-point 28 :   0.3333 0.3333 0.3333  plane waves:    3227
 k-point 29 :   0.0000 0.4444 0.3333  plane waves:    3235
 k-point 30 :   0.3333 0.4444 0.3333  plane waves:    3233
 k-point 31 :   0.0000 0.0000 0.5000  plane waves:    3256
 k-point 32 :   0.3333 0.0000 0.5000  plane waves:    3256
 k-point 33 :   0.0000 0.1111 0.5000  plane waves:    3240
 k-point 34 :   0.3333 0.1111 0.5000  plane waves:    3244
 k-point 35 :   0.0000 0.2222 0.5000  plane waves:    3238
 k-point 36 :   0.3333 0.2222 0.5000  plane waves:    3258
 k-point 37 :   0.0000 0.3333 0.5000  plane waves:    3226
 k-point 38 :   0.3333 0.3333 0.5000  plane waves:    3230
 k-point 39 :   0.0000 0.4444 0.5000  plane waves:    3218
 k-point 40 :   0.3333 0.4444 0.5000  plane waves:    3214

 maximum and minimum number of plane-waves per node :       840      780

 maximum number of plane-waves:      3266
 maximum index in each direction: 
   IXMAX=   17   IYMAX=    5   IZMAX=    8
   IXMIN=  -17   IYMIN=   -5   IZMIN=   -8

 WARNING: aliasing errors must be expected set NGX to  70 to avoid them
 WARNING: aliasing errors must be expected set NGY to  22 to avoid them
 WARNING: aliasing errors must be expected set NGZ to  34 to avoid them
 aliasing errors are usually negligible using standard VASP settings
 and one can safely disregard these warnings

 parallel 3D FFT for wavefunctions:
    minimum data exchange during FFTs selected (reduces bandwidth)
 parallel 3D FFT for charge:
    minimum data exchange during FFTs selected (reduces bandwidth)


 total amount of memory used by VASP on root node    48225. kBytes
========================================================================

   base      :      30000. kBytes
   nonl-proj :       9838. kBytes
   fftplans  :        438. kBytes
   grid      :       1098. kBytes
   one-center:         93. kBytes
   wavefun   :       6758. kBytes
 
 Broyden mixing: mesh for mixing (old mesh)
   NGX = 35   NGY = 11   NGZ = 17
  (NGX  =108   NGY  = 32   NGZ  = 56)
  gives a total of   6545 points

 initial charge density was supplied:
 charge density of overlapping atoms calculated
 number of electron      76.0000000 magnetization       0.0000000
 keeping initial charge density in first step


--------------------------------------------------------------------------------------------------------


 Maximum index for augmentation-charges          431 (set IRDMAX)


--------------------------------------------------------------------------------------------------------


 First call to EWALD:  gamma=   0.359
 Maximum number of real-space cells 2x 4x 3
 Maximum number of reciprocal cells 5x 2x 3

 FEWALD executed in parallel
    FEWALD:  cpu time    0.00: real time    0.00


----------------------------------------- Iteration    1(   1)  ---------------------------------------


    POTLOK:  cpu time    0.01: real time    0.01
    SETDIJ:  cpu time    0.00: real time    0.01
     EDDAV:  cpu time    1.65: real time    1.65
       DOS:  cpu time    0.00: real time    0.00
    --------------------------------------------
      LOOP:  cpu time    1.67: real time    1.74

 eigenvalue-minimisations  :  7680
 total energy-change (2. order) : 0.1066777E+04  (-0.3391148E+04)
 number of electron      76.0000000 magnetization       0.0000000
 augmentation part       76.0000000 magnetization       0.0000000

 Free energy of the ion-electron system (eV)
  ---------------------------------------------------
  alpha Z        PSCENC =       315.99999506
  Ewald energy   TEWEN  =     -4123.92964924
  -1/2 Hartree   DENC   =     -1338.17840341
  -exchange  EXHF       =         0.00000000
  -V(xc)+E(xc)   XCENC  =       185.95391863
  PAW double counting   =      4385.75833043    -4339.47960987
  entropy T*S    EENTRO =         0.00309202
  eigenvalues    EBANDS =       870.07874173
  atomic energy  EATOM  =      5110.57042958
  ---------------------------------------------------
  free energy    TOTEN  =      1066.77684493 eV

  energy without entropy =     1066.77375291  energy(sigma->0) =     1066.77581426


--------------------------------------------------------------------------------------------------------




----------------------------------------- Iteration    1(   2)  ---------------------------------------


     EDDAV:  cpu time    1.66: real time    1.66
       DOS:  cpu time    0.00: real time    0.00
    --------------------------------------------
      LOOP:  cpu time    1.66: real time    1.74

 eigenvalue-minimisations  :  7816
 total energy-change (2. order) :-0.9432664E+03  (-0.8990910E+03)
 number of electron      76.0000000 magnetization       0.0000000
 augmentation part       76.0000000 magnetization       0.0000000

 Free energy of the ion-electron system (eV)
  ---------------------------------------------------
  alpha Z        PSCENC =       315.99999506
  Ewald energy   TEWEN  =     -4123.92964924
  -1/2 Hartree   DENC   =     -1338.17840341
  -exchange  EXHF       =         0.00000000
  -V(xc)+E(xc)   XCENC  =       185.95391863
  PAW double counting   =      4385.75833043    -4339.47960987
  entropy T*S    EENTRO =         0.00641712
  eigenvalues    EBANDS =       -73.19094613
  atomic energy  EATOM  =      5110.57042958
  ---------------------------------------------------
  free energy    TOTEN  =       123.51048217 eV

  energy without entropy =      123.50406505  energy(sigma->0) =      123.50834313


--------------------------------------------------------------------------------------------------------




----------------------------------------- Iteration    1(   3)  ---------------------------------------


     EDDAV:  cpu time    2.23: real time    2.23
       DOS:  cpu time    0.00: real time    0.00
    --------------------------------------------
      LOOP:  cpu time    2.23: real time    2.30

 eigenvalue-minimisations  : 11560
 total energy-change (2. order) :-0.2301920E+03  (-0.2172019E+03)
 number of electron      76.0000000 magnetization       0.0000000
 augmentation part       76.0000000 magnetization       0.0000000

 Free energy of the ion-electron system (eV)
  ---------------------------------------------------
  alpha Z        PSCENC =       315.99999506
  Ewald energy   TEWEN  =     -4123.92964924
  -1/2 Hartree   DENC   =     -1338.17840341
  -exchange  EXHF       =         0.00000000
  -V(xc)+E(xc)   XCENC  =       185.95391863
  PAW double counting   =      4385.75833043    -4339.47960987
  entropy T*S    EENTRO =         0.00410244
  eigenvalues    EBANDS =      -303.38061218
  atomic energy  EATOM  =      5110.57042958
  ---------------------------------------------------
  free energy    TOTEN  =      -106.68149856 eV

  energy without entropy =     -106.68560099  energy(sigma->0) =     -106.68286604


--------------------------------------------------------------------------------------------------------




----------------------------------------- Iteration    1(   4)  ---------------------------------------


     EDDAV:  cpu time    2.40: real time    2.40
       DOS:  cpu time    0.00: real time    0.00
    --------------------------------------------
      LOOP:  cpu time    2.40: real time    2.47

 eigenvalue-minimisations  : 12736
 total energy-change (2. order) :-0.2368784E+02  (-0.2270945E+02)
 number of electron      76.0000000 magnetization       0.0000000
 augmentation part       76.0000000 magnetization       0.0000000

 Free energy of the ion-electron system (eV)
  ---------------------------------------------------
  alpha Z        PSCENC =       315.99999506
  Ewald energy   TEWEN  =     -4123.92964924
  -1/2 Hartree   DENC   =     -1338.17840341
  -exchange  EXHF       =         0.00000000
  -V(xc)+E(xc)   XCENC  =       185.95391863
  PAW double counting   =      4385.75833043    -4339.47960987
  entropy T*S    EENTRO =         0.02288969
  eigenvalues    EBANDS =      -327.08724343
  atomic energy  EATOM  =      5110.57042958
  ---------------------------------------------------
  free energy    TOTEN  =      -130.36934256 eV

  energy without entropy =     -130.39223225  energy(sigma->0) =     -130.37697245


--------------------------------------------------------------------------------------------------------




----------------------------------------- Iteration    1(   5)  ---------------------------------------


     EDDAV:  cpu time    2.27: real time    2.27
       DOS:  cpu time    0.00: real time    0.00
    CHARGE:  cpu time    0.07: real time    0.07
    MIXING:  cpu time    0.00: real time    0.00
    --------------------------------------------
      LOOP:  cpu time    2.34: real time    2.44

 eigenvalue-minimisations  : 11960
 total energy-change (2. order) :-0.7335898E+00  (-0.7228325E+00)
 number of electron      76.0000059 magnetization       0.0000000
 augmentation part       14.9942669 magnetization       0.0000000

 Broyden mixing:
  rms(total) = 0.56230E+01    rms(broyden)= 0.56226E+01
  rms(prec ) = 0.67233E+01
  weight for this iteration     100.00

 Free energy of the ion-electron system (eV)
  ---------------------------------------------------
  alpha Z        PSCENC =       315.99999506
  Ewald energy   TEWEN  =     -4123.92964924
  -1/2 Hartree   DENC   =     -1338.17840341
  -exchange  EXHF       =         0.00000000
  -V(xc)+E(xc)   XCENC  =       185.95391863
  PAW double counting   =      4385.75833043    -4339.47960987
  entropy T*S    EENTRO =         0.02371131
  eigenvalues    EBANDS =      -327.82165483
  atomic energy  EATOM  =      5110.57042958
  ---------------------------------------------------
  free energy    TOTEN  =      -131.10293234 eV

  energy without entropy =     -131.12664365  energy(sigma->0) =     -131.11083611


--------------------------------------------------------------------------------------------------------




----------------------------------------- Iteration    1(   6)  ---------------------------------------


    POTLOK:  cpu time    0.01: real time    0.01
    SETDIJ:  cpu time    0.00: real time    0.01
     EDDAV:  cpu time    2.28: real time    2.28
       DOS:  cpu time    0.00: real time    0.00
    CHARGE:  cpu time    0.07: real time    0.07
    MIXING:  cpu time    0.00: real time    0.00
    --------------------------------------------
      LOOP:  cpu time    2.37: real time    2.47

 eigenvalue-minimisations  : 12032
 total energy-change (2. order) : 0.3946672E+01  (-0.3384172E+02)
 number of electron      76.0000082 magnetization       0.0000000
 augmentation part       24.0790866 magnetization       0.0000000

 Broyden mixing:
  rms(total) = 0.84489E+01    rms(broyden)= 0.84482E+01
  rms(prec ) = 0.10425E+02
  weight for this iteration     100.00

 eigenvalues of (default mixing * dielectric matrix)
  average eigenvalue GAMMA=   0.2513
  0.2513

 Free energy of the ion-electron system (eV)
  ---------------------------------------------------
  alpha Z        PSCENC =       315.99999506
  Ewald energy   TEWEN  =     -4123.92964924
  -1/2 Hartree   DENC   =     -1374.06765572
  -exchange  EXHF       =         0.00000000
  -V(xc)+E(xc)   XCENC  =       193.03618048
  PAW double counting   =      5210.23028014    -5154.14482717
  entropy T*S    EENTRO =        -0.00077386
  eigenvalues    EBANDS =      -304.85023994
  atomic energy  EATOM  =      5110.57042958
  ---------------------------------------------------
  free energy    TOTEN  =      -127.15626067 eV

  energy without entropy =     -127.15548681  energy(sigma->0) =     -127.15600272


--------------------------------------------------------------------------------------------------------




----------------------------------------- Iteration    1(   7)  ---------------------------------------


    POTLOK:  cpu time    0.01: real time    0.01
    SETDIJ:  cpu time    0.00: real time    0.01
     EDDAV:  cpu time    2.75: real time    2.75
       DOS:  cpu time    0.00: real time    0.00
    CHARGE:  cpu time    0.07: real time    0.07
    MIXING:  cpu time    0.00: real time    0.00
    --------------------------------------------
      LOOP:  cpu time    2.84: real time    2.92

 eigenvalue-minimisations  : 14808
 total energy-change (2. order) : 0.2540219E+02  (-0.2336221E+02)
 number of electron      76.0000056 magnetization       0.0000000
 augmentation part       15.7873760 magnetization       0.0000000

 Broyden mixing:
  rms(total) = 0.23137E+01    rms(broyden)= 0.23128E+01
  rms(prec ) = 0.26900E+01
  weight for this iteration     100.00

 eigenvalues of (default mixing * dielectric matrix)
  average eigenvalue GAMMA=   0.6742
  1.0694  0.2790

 Free energy of the ion-electron system (eV)
  ---------------------------------------------------
  alpha Z        PSCENC =       315.99999506
  Ewald energy   TEWEN  =     -4123.92964924
  -1/2 Hartree   DENC   =     -1369.09926815
  -exchange  EXHF       =         0.00000000
  -V(xc)+E(xc)   XCENC  =       186.10581015
  PAW double counting   =      5476.06448861    -5432.07685239
  entropy T*S    EENTRO =         0.01618971
  eigenvalues    EBANDS =      -265.40521112
  atomic energy  EATOM  =      5110.57042958
  ---------------------------------------------------
  free energy    TOTEN  =      -101.75406779 eV

  energy without entropy =     -101.77025751  energy(sigma->0) =     -101.75946436


--------------------------------------------------------------------------------------------------------




----------------------------------------- Iteration    1(   8)  ---------------------------------------


    POTLOK:  cpu time    0.01: real time    0.01
    SETDIJ:  cpu time    0.00: real time    0.01
     EDDAV:  cpu time    2.27: real time    2.27
       DOS:  cpu time    0.00: real time    0.00
    CHARGE:  cpu time    0.07: real time    0.07
    MIXING:  cpu time    0.00: real time    0.00
    --------------------------------------------
      LOOP:  cpu time    2.36: real time    2.46

 eigenvalue-minimisations  : 11960
 total energy-change (2. order) : 0.8896969E+00  (-0.2451217E+01)
 number of electron      76.0000060 magnetization       0.0000000
 augmentation part       17.0159552 magnetization       0.0000000

 Broyden mixing:
  rms(total) = 0.10755E+01    rms(broyden)= 0.10753E+01
  rms(prec ) = 0.12320E+01
  weight for this iteration     100.00

 eigenvalues of (default mixing * dielectric matrix)
  average eigenvalue GAMMA=   0.8475
  1.6130  0.2947  0.6348

 Free energy of the ion-electron system (eV)
  ---------------------------------------------------
  alpha Z        PSCENC =       315.99999506
  Ewald energy   TEWEN  =     -4123.92964924
  -1/2 Hartree   DENC   =     -1341.15463550
  -exchange  EXHF       =         0.00000000
  -V(xc)+E(xc)   XCENC  =       188.26217488
  PAW double counting   =      6059.80299236    -6016.77998292
  entropy T*S    EENTRO =         0.00749552
  eigenvalues    EBANDS =      -293.64319063
  atomic energy  EATOM  =      5110.57042958
  ---------------------------------------------------
  free energy    TOTEN  =      -100.86437088 eV

  energy without entropy =     -100.87186640  energy(sigma->0) =     -100.86686939


--------------------------------------------------------------------------------------------------------




----------------------------------------- Iteration    1(   9)  ---------------------------------------


    POTLOK:  cpu time    0.01: real time    0.01
    SETDIJ:  cpu time    0.00: real time    0.00
     EDDAV:  cpu time    2.63: real time    2.63
       DOS:  cpu time    0.00: real time    0.00
    CHARGE:  cpu time    0.07: real time    0.07
    MIXING:  cpu time    0.00: real time    0.00
    --------------------------------------------
      LOOP:  cpu time    2.72: real time    2.79

 eigenvalue-minimisations  : 14096
 total energy-change (2. order) : 0.3275363E+00  (-0.3343996E+00)
 number of electron      76.0000061 magnetization       0.0000000
 augmentation part       17.6302858 magnetization       0.0000000

 Broyden mixing:
  rms(total) = 0.30144E+00    rms(broyden)= 0.30133E+00
  rms(prec ) = 0.35774E+00
  weight for this iteration     100.00

 eigenvalues of (default mixing * dielectric matrix)
  average eigenvalue GAMMA=   0.9457
  1.9320  0.9556  0.2987  0.5964

 Free energy of the ion-electron system (eV)
  ---------------------------------------------------
  alpha Z        PSCENC =       315.99999506
  Ewald energy   TEWEN  =     -4123.92964924
  -1/2 Hartree   DENC   =     -1344.49867458
  -exchange  EXHF       =         0.00000000
  -V(xc)+E(xc)   XCENC  =       189.49092483
  PAW double counting   =      6383.29832643    -6341.24176054
  entropy T*S    EENTRO =         0.00680498
  eigenvalues    EBANDS =      -290.23323111
  atomic energy  EATOM  =      5110.57042958
  ---------------------------------------------------
  free energy    TOTEN  =      -100.53683460 eV

  energy without entropy =     -100.54363958  energy(sigma->0) =     -100.53910293


--------------------------------------------------------------------------------------------------------




----------------------------------------- Iteration    1(  10)  ---------------------------------------


    POTLOK:  cpu time    0.01: real time    0.01
    SETDIJ:  cpu time    0.01: real time    0.00
     EDDAV:  cpu time    2.25: real time    2.25
       DOS:  cpu time    0.00: real time    0.00
    CHARGE:  cpu time    0.07: real time    0.07
    MIXING:  cpu time    0.00: real time    0.00
    --------------------------------------------
      LOOP:  cpu time    2.35: real time    2.43

 eigenvalue-minimisations  : 11872
 total energy-change (2. order) : 0.2440096E-01  (-0.4224897E-01)
 number of electron      76.0000061 magnetization       0.0000000
 augmentation part       17.4471425 magnetization       0.0000000

 Broyden mixing:
  rms(total) = 0.18242E+00    rms(broyden)= 0.18242E+00
  rms(prec ) = 0.19569E+00
  weight for this iteration     100.00

 eigenvalues of (default mixing * dielectric matrix)
  average eigenvalue GAMMA=   0.9283
  2.0113  0.2985  0.8414  0.8414  0.6487

 Free energy of the ion-electron system (eV)
  ---------------------------------------------------
  alpha Z        PSCENC =       315.99999506
  Ewald energy   TEWEN  =     -4123.92964924
  -1/2 Hartree   DENC   =     -1347.50712298
  -exchange  EXHF       =         0.00000000
  -V(xc)+E(xc)   XCENC  =       189.88031603
  PAW double counting   =      6468.53614469    -6427.91704301
  entropy T*S    EENTRO =         0.00639894
  eigenvalues    EBANDS =      -286.15190271
  atomic energy  EATOM  =      5110.57042958
  ---------------------------------------------------
  free energy    TOTEN  =      -100.51243364 eV

  energy without entropy =     -100.51883258  energy(sigma->0) =     -100.51456662


--------------------------------------------------------------------------------------------------------




----------------------------------------- Iteration    1(  11)  ---------------------------------------


    POTLOK:  cpu time    0.01: real time    0.01
    SETDIJ:  cpu time    0.00: real time    0.01
     EDDAV:  cpu time    2.33: real time    2.33
       DOS:  cpu time    0.00: real time    0.00
    CHARGE:  cpu time    0.07: real time    0.07
    MIXING:  cpu time    0.00: real time    0.00
    --------------------------------------------
      LOOP:  cpu time    2.42: real time    2.49

 eigenvalue-minimisations  : 12192
 total energy-change (2. order) : 0.1850703E-02  (-0.1907607E-02)
 number of electron      76.0000061 magnetization       0.0000000
 augmentation part       17.4505630 magnetization       0.0000000

 Broyden mixing:
  rms(total) = 0.83264E-01    rms(broyden)= 0.83262E-01
  rms(prec ) = 0.10187E+00
  weight for this iteration     100.00

 eigenvalues of (default mixing * dielectric matrix)
  average eigenvalue GAMMA=   0.9915
  2.2182  0.2986  1.0667  1.0667  0.6495  0.6495

 Free energy of the ion-electron system (eV)
  ---------------------------------------------------
  alpha Z        PSCENC =       315.99999506
  Ewald energy   TEWEN  =     -4123.92964924
  -1/2 Hartree   DENC   =     -1347.17205625
  -exchange  EXHF       =         0.00000000
  -V(xc)+E(xc)   XCENC  =       189.66529279
  PAW double counting   =      6514.95744758    -6474.61253982
  entropy T*S    EENTRO =         0.00642582
  eigenvalues    EBANDS =      -285.99592846
  atomic energy  EATOM  =      5110.57042958
  ---------------------------------------------------
  free energy    TOTEN  =      -100.51058294 eV

  energy without entropy =     -100.51700876  energy(sigma->0) =     -100.51272488


--------------------------------------------------------------------------------------------------------




----------------------------------------- Iteration    1(  12)  ---------------------------------------


    POTLOK:  cpu time    0.01: real time    0.01
    SETDIJ:  cpu time    0.00: real time    0.01
     EDDAV:  cpu time    2.49: real time    2.49
       DOS:  cpu time    0.00: real time    0.00
    CHARGE:  cpu time    0.07: real time    0.07
    MIXING:  cpu time    0.00: real time    0.00
    --------------------------------------------
      LOOP:  cpu time    2.58: real time    2.69

 eigenvalue-minimisations  : 13144
 total energy-change (2. order) : 0.4822658E-02  (-0.2002968E-02)
 number of electron      76.0000061 magnetization       0.0000000
 augmentation part       17.3983399 magnetization       0.0000000

 Broyden mixing:
  rms(total) = 0.26479E-01    rms(broyden)= 0.26472E-01
  rms(prec ) = 0.29151E-01
  weight for this iteration     100.00

 eigenvalues of (default mixing * dielectric matrix)
  average eigenvalue GAMMA=   1.0234
  2.2025  1.5678  0.2986  0.9040  0.9040  0.6143  0.6723

 Free energy of the ion-electron system (eV)
  ---------------------------------------------------
  alpha Z        PSCENC =       315.99999506
  Ewald energy   TEWEN  =     -4123.92964924
  -1/2 Hartree   DENC   =     -1347.89142594
  -exchange  EXHF       =         0.00000000
  -V(xc)+E(xc)   XCENC  =       189.69689967
  PAW double counting   =      6547.99942369    -6508.19226535
  entropy T*S    EENTRO =         0.00631094
  eigenvalues    EBANDS =      -284.76547868
  atomic energy  EATOM  =      5110.57042958
  ---------------------------------------------------
  free energy    TOTEN  =      -100.50576028 eV

  energy without entropy =     -100.51207122  energy(sigma->0) =     -100.50786392


--------------------------------------------------------------------------------------------------------




----------------------------------------- Iteration    1(  13)  ---------------------------------------


    POTLOK:  cpu time    0.01: real time    0.01
    SETDIJ:  cpu time    0.00: real time    0.01
     EDDAV:  cpu time    2.59: real time    2.59
       DOS:  cpu time    0.00: real time    0.00
    CHARGE:  cpu time    0.07: real time    0.07
    MIXING:  cpu time    0.00: real time    0.00
    --------------------------------------------
      LOOP:  cpu time    2.69: real time    2.89

 eigenvalue-minimisations  : 13832
 total energy-change (2. order) :-0.2669334E-04  (-0.3775474E-03)
 number of electron      76.0000061 magnetization      -0.0000000
 augmentation part       17.3834713 magnetization      -0.0000000

 Broyden mixing:
  rms(total) = 0.16123E-01    rms(broyden)= 0.16117E-01
  rms(prec ) = 0.20987E-01
  weight for this iteration     100.00

 eigenvalues of (default mixing * dielectric matrix)
  average eigenvalue GAMMA=   1.0233
  2.2558  1.7895  0.2986  1.0112  0.7972  0.7972  0.6183  0.6183

 Free energy of the ion-electron system (eV)
  ---------------------------------------------------
  alpha Z        PSCENC =       315.99999506
  Ewald energy   TEWEN  =     -4123.92964924
  -1/2 Hartree   DENC   =     -1348.27659801
  -exchange  EXHF       =         0.00000000
  -V(xc)+E(xc)   XCENC  =       189.64186701
  PAW double counting   =      6547.20862835    -6507.41152860
  entropy T*S    EENTRO =         0.00626341
  eigenvalues    EBANDS =      -284.31519452
  atomic energy  EATOM  =      5110.57042958
  ---------------------------------------------------
  free energy    TOTEN  =      -100.50578697 eV

  energy without entropy =     -100.51205038  energy(sigma->0) =     -100.50787477


--------------------------------------------------------------------------------------------------------




----------------------------------------- Iteration    1(  14)  ---------------------------------------


    POTLOK:  cpu time    0.01: real time    0.01
    SETDIJ:  cpu time    0.00: real time    0.01
     EDDAV:  cpu time    1.86: real time    1.86
       DOS:  cpu time    0.00: real time    0.00
    CHARGE:  cpu time    0.07: real time    0.07
    MIXING:  cpu time    0.00: real time    0.00
    --------------------------------------------
      LOOP:  cpu time    1.95: real time    2.05

 eigenvalue-minimisations  :  9024
 total energy-change (2. order) : 0.1667320E-03  (-0.5049364E-04)
 number of electron      76.0000061 magnetization      -0.0000000
 augmentation part       17.3854143 magnetization      -0.0000000

 Broyden mixing:
  rms(total) = 0.12423E-01    rms(broyden)= 0.12422E-01
  rms(prec ) = 0.14768E-01
  weight for this iteration     100.00

 eigenvalues of (default mixing * dielectric matrix)
  average eigenvalue GAMMA=   1.0479
  2.1876  2.1876  1.0506  1.0506  0.2986  0.6625  0.6625  0.7023  0.6288

 Free energy of the ion-electron system (eV)
  ---------------------------------------------------
  alpha Z        PSCENC =       315.99999506
  Ewald energy   TEWEN  =     -4123.92964924
  -1/2 Hartree   DENC   =     -1348.62140163
  -exchange  EXHF       =         0.00000000
  -V(xc)+E(xc)   XCENC  =       189.65098054
  PAW double counting   =      6547.76671122    -6507.98675905
  entropy T*S    EENTRO =         0.00626492
  eigenvalues    EBANDS =      -283.96219164
  atomic energy  EATOM  =      5110.57042958
  ---------------------------------------------------
  free energy    TOTEN  =      -100.50562024 eV

  energy without entropy =     -100.51188516  energy(sigma->0) =     -100.50770855


--------------------------------------------------------------------------------------------------------




----------------------------------------- Iteration    1(  15)  ---------------------------------------


    POTLOK:  cpu time    0.01: real time    0.01
    SETDIJ:  cpu time    0.01: real time    0.01
     EDDAV:  cpu time    1.47: real time    1.47
       DOS:  cpu time    0.00: real time    0.00
    --------------------------------------------
      LOOP:  cpu time    1.49: real time    1.57

 eigenvalue-minimisations  :  6296
 total energy-change (2. order) :-0.5343134E-05  (-0.3926814E-04)
 number of electron      76.0000061 magnetization      -0.0000000
 augmentation part       17.3854143 magnetization      -0.0000000

 Free energy of the ion-electron system (eV)
  ---------------------------------------------------
  alpha Z        PSCENC =       315.99999506
  Ewald energy   TEWEN  =     -4123.92964924
  -1/2 Hartree   DENC   =     -1348.92812391
  -exchange  EXHF       =         0.00000000
  -V(xc)+E(xc)   XCENC  =       189.67364737
  PAW double counting   =      6546.29574216    -6506.50985117
  entropy T*S    EENTRO =         0.00626452
  eigenvalues    EBANDS =      -283.68407995
  atomic energy  EATOM  =      5110.57042958
  ---------------------------------------------------
  free energy    TOTEN  =      -100.50562558 eV

  energy without entropy =     -100.51189010  energy(sigma->0) =     -100.50771376


--------------------------------------------------------------------------------------------------------




 average (electrostatic) potential at core
  the test charge radii are     1.0210  0.7215
  (the norm of the test charge is              1.0000)
       1 -47.5094       2 -47.5094       3 -47.5094       4 -47.5094       5 -72.2831
       6 -72.2831       7 -72.2831       8 -72.2831       9 -72.2297      10 -72.2297
      11 -72.2297      12 -72.2297
 
 
 
 E-fermi :   2.9341     XC(G=0): -11.4906     alpha+bet :-10.5907


 spin component 1

 k-point   1 :       0.0000    0.0000    0.0000
  band No.  band energies     occupation 
      1     -16.7624      1.00000
      2     -16.0714      1.00000
      3     -15.9517      1.00000
      4     -15.0365      1.00000
      5     -14.8064      1.00000
      6     -14.7539      1.00000
      7     -14.4641      1.00000
      8     -14.4478      1.00000
      9      -4.3555      1.00000
     10      -3.7401      1.00000
     11      -3.4945      1.00000
     12      -3.2379      1.00000
     13      -2.7854      1.00000
     14      -2.7347      1.00000
     15      -2.6797      1.00000
     16      -2.5468      1.00000
     17      -2.1991      1.00000
     18      -2.1076      1.00000
     19      -1.9595      1.00000
     20      -1.5106      1.00000
     21      -1.0624      1.00000
     22      -0.5578      1.00000
     23      -0.3786      1.00000
     24      -0.3348      1.00000
     25      -0.3122      1.00000
     26       0.2807      1.00000
     27       0.3724      1.00000
     28       0.9840      1.00000
     29       1.1393      1.00000
     30       1.2418      1.00000
     31       1.2966      1.00000
     32       1.3808      1.00000
     33       1.4568      1.00000
     34       1.8501      1.00000
     35       1.9120      1.00000
     36       1.9864      1.00000
     37       2.2942      1.00003
     38       2.5660      1.01293
     39       3.5053     -0.00020
     40       3.8013     -0.00000
     41       3.8861     -0.00000
     42       4.2896     -0.00000
     43       4.5658     -0.00000
     44       4.6369     -0.00000
     45       4.9278     -0.00000
     46       5.2859     -0.00000
     47       5.5200     -0.00000
     48       6.0361     -0.00000

 k-point   2 :       0.3333    0.0000    0.0000
  band No.  band energies     occupation 
      1     -16.6698      1.00000
      2     -16.4070      1.00000
      3     -15.5693      1.00000
      4     -15.1995      1.00000
      5     -14.7852      1.00000
      6     -14.7627      1.00000
      7     -14.4549      1.00000
      8     -14.4479      1.00000
      9      -4.1686      1.00000
     10      -3.8398      1.00000
     11      -3.4613      1.00000
     12      -3.3165      1.00000
     13      -2.8808      1.00000
     14      -2.7475      1.00000
     15      -2.7219      1.00000
     16      -2.6944      1.00000
     17      -2.0722      1.00000
     18      -1.9982      1.00000
     19      -1.9691      1.00000
     20      -1.7578      1.00000
     21      -0.5755      1.00000
     22      -0.5588      1.00000
     23      -0.5078      1.00000
     24      -0.3853      1.00000
     25      -0.2884      1.00000
     26       0.5123      1.00000
     27       0.5195      1.00000
     28       0.8092      1.00000
     29       0.8175      1.00000
     30       1.1493      1.00000
     31       1.3854      1.00000
     32       1.5906      1.00000
     33       1.6235      1.00000
     34       1.7299      1.00000
     35       1.8112      1.00000
     36       1.8960      1.00000
     37       2.2875      1.00002
     38       2.4597      1.00201
     39       3.6902     -0.00000
     40       3.8250     -0.00000
     41       3.8619     -0.00000
     42       4.0705     -0.00000
     43       4.6076     -0.00000
     44       4.6401     -0.00000
     45       5.0285     -0.00000
     46       5.2096     -0.00000
     47       5.6855     -0.00000
     48       5.9340     -0.00000

 k-point   3 :       0.0000    0.1111    0.0000
  band No.  band energies     occupation 
      1     -16.6437      1.00000
      2     -15.9789      1.00000
      3     -15.8661      1.00000
      4     -15.0017      1.00000
      5     -14.8138      1.00000
      6     -14.7678      1.00000
      7     -14.4904      1.00000
      8     -14.4790      1.00000
      9      -4.1928      1.00000
     10      -3.5965      1.00000
     11      -3.3835      1.00000
     12      -3.1332      1.00000
     13      -2.8847      1.00000
     14      -2.7512      1.00000
     15      -2.6823      1.00000
     16      -2.5846      1.00000
     17      -2.2370      1.00000
     18      -2.1111      1.00000
     19      -1.7764      1.00000
     20      -1.3683      1.00000
     21      -1.2705      1.00000
     22      -0.8073      1.00000
     23      -0.6940      1.00000
     24      -0.4637      1.00000
     25      -0.2178      1.00000
     26       0.0197      1.00000
     27       0.3054      1.00000
     28       0.5422      1.00000
     29       0.8154      1.00000
     30       1.1541      1.00000
     31       1.4300      1.00000
     32       1.6247      1.00000
     33       1.6731      1.00000
     34       1.7634      1.00000
     35       1.8657      1.00000
     36       1.9344      1.00000
     37       2.3431      1.00012
     38       2.5072      1.00506
     39       3.5516     -0.00006
     40       3.9602     -0.00000
     41       4.1003     -0.00000
     42       4.3227     -0.00000
     43       4.6875     -0.00000
     44       4.7231     -0.00000
     45       4.8695     -0.00000
     46       5.1641     -0.00000
     47       5.3361     -0.00000
     48       5.8146     -0.00000

 k-point   4 :       0.3333    0.1111    0.0000
  band No.  band energies     occupation 
      1     -16.5544      1.00000
      2     -16.3014      1.00000
      3     -15.5018      1.00000
      4     -15.1533      1.00000
      5     -14.7955      1.00000
      6     -14.7759      1.00000
      7     -14.4829      1.00000
      8     -14.4782      1.00000
      9      -4.0176      1.00000
     10      -3.7021      1.00000
     11      -3.3525      1.00000
     12      -3.2146      1.00000
     13      -2.8500      1.00000
     14      -2.7991      1.00000
     15      -2.7213      1.00000
     16      -2.6388      1.00000
     17      -2.3035      1.00000
     18      -2.2302      1.00000
     19      -1.6256      1.00000
     20      -1.5446      1.00000
     21      -0.9138      1.00000
     22      -0.8500      1.00000
     23      -0.4971      1.00000
     24      -0.4039      1.00000
     25      -0.3408      1.00000
     26       0.0847      1.00000
     27       0.1745      1.00000
     28       0.4959      1.00000
     29       0.9342      1.00000
     30       1.1536      1.00000
     31       1.2536      1.00000
     32       1.4928      1.00000
     33       1.7429      1.00000
     34       1.7611      1.00000
     35       1.9434      1.00000
     36       1.9864      1.00000
     37       2.3381      1.00010
     38       2.4313      1.00109
     39       3.6851     -0.00000
     40       3.9355     -0.00000
     41       4.0871     -0.00000
     42       4.1408     -0.00000
     43       4.6948     -0.00000
     44       4.7214     -0.00000
     45       4.9728     -0.00000
     46       5.1268     -0.00000
     47       5.4679     -0.00000
     48       5.7070     -0.00000

 k-point   5 :       0.0000    0.2222    0.0000
  band No.  band energies     occupation 
      1     -16.3138      1.00000
      2     -15.7301      1.00000
      3     -15.6400      1.00000
      4     -14.9366      1.00000
      5     -14.8262      1.00000
      6     -14.8054      1.00000
      7     -14.5663      1.00000
      8     -14.5612      1.00000
      9      -3.7621      1.00000
     10      -3.2499      1.00000
     11      -3.1046      1.00000
     12      -2.9590      1.00000
     13      -2.9197      1.00000
     14      -2.8441      1.00000
     15      -2.7456      1.00000
     16      -2.5401      1.00000
     17      -2.2479      1.00000
     18      -1.8782      1.00000
     19      -1.8468      1.00000
     20      -1.7924      1.00000
     21      -1.6823      1.00000
     22      -1.3512      1.00000
     23      -0.7305      1.00000
     24      -0.4726      1.00000
     25      -0.4143      1.00000
     26      -0.0604      1.00000
     27      -0.0466      1.00000
     28       0.0387      1.00000
     29       0.7407      1.00000
     30       0.8941      1.00000
     31       0.9846      1.00000
     32       1.4097      1.00000
     33       1.6995      1.00000
     34       1.7587      1.00000
     35       2.0468      1.00000
     36       2.0523      1.00000
     37       2.3881      1.00039
     38       2.4057      1.00060
     39       3.7302     -0.00000
     40       4.1600     -0.00000
     41       4.3378     -0.00000
     42       4.3390     -0.00000
     43       4.6381     -0.00000
     44       4.6655     -0.00000
     45       4.9195     -0.00000
     46       4.9465     -0.00000
     47       5.1772     -0.00000
     48       5.4744     -0.00000

 k-point   6 :       0.3333    0.2222    0.0000
  band No.  band energies     occupation 
      1     -16.2348      1.00000
      2     -16.0126      1.00000
      3     -15.3298      1.00000
      4     -15.0480      1.00000
      5     -14.8224      1.00000
      6     -14.8115      1.00000
      7     -14.5623      1.00000
      8     -14.5590      1.00000
      9      -3.6410      1.00000
     10      -3.3901      1.00000
     11      -3.0758      1.00000
     12      -2.9630      1.00000
     13      -2.8795      1.00000
     14      -2.7943      1.00000
     15      -2.7921      1.00000
     16      -2.5983      1.00000
     17      -2.3332      1.00000
     18      -2.0735      1.00000
     19      -1.7978      1.00000
     20      -1.7498      1.00000
     21      -1.4992      1.00000
     22      -1.1403      1.00000
     23      -0.7531      1.00000
     24      -0.7212      1.00000
     25      -0.3632      1.00000
     26      -0.2196      1.00000
     27       0.0025      1.00000
     28       0.1225      1.00000
     29       0.8035      1.00000
     30       0.8519      1.00000
     31       1.0817      1.00000
     32       1.3288      1.00000
     33       1.7235      1.00000
     34       1.7941      1.00000
     35       1.9984      1.00000
     36       2.0208      1.00000
     37       2.4409      1.00135
     38       2.4426      1.00140
     39       3.8112     -0.00000
     40       4.0478     -0.00000
     41       4.2302     -0.00000
     42       4.2863     -0.00000
     43       4.7001     -0.00000
     44       4.7180     -0.00000
     45       4.9324     -0.00000
     46       4.9443     -0.00000
     47       5.2513     -0.00000
     48       5.3967     -0.00000

 k-point   7 :       0.0000    0.3333    0.0000
  band No.  band energies     occupation 
      1     -15.8504      1.00000
      2     -15.4052      1.00000
      3     -15.3591      1.00000
      4     -14.9238      1.00000
      5     -14.8569      1.00000
      6     -14.8334      1.00000
      7     -14.6945      1.00000
      8     -14.6621      1.00000
      9      -3.3015      1.00000
     10      -3.2661      1.00000
     11      -3.0432      1.00000
     12      -3.0310      1.00000
     13      -2.8062      1.00000
     14      -2.8030      1.00000
     15      -2.7495      1.00000
     16      -2.5754      1.00000
     17      -2.3423      1.00000
     18      -2.2953      1.00000
     19      -1.8347      1.00000
     20      -1.6021      1.00000
     21      -1.5439      1.00000
     22      -1.2251      1.00000
     23      -0.8647      1.00000
     24      -0.7161      1.00000
     25      -0.5723      1.00000
     26      -0.3737      1.00000
     27      -0.0897      1.00000
     28      -0.0746      1.00000
     29       0.6019      1.00000
     30       0.6234      1.00000
     31       0.7198      1.00000
     32       0.7345      1.00000
     33       1.5832      1.00000
     34       1.7349      1.00000
     35       1.7785      1.00000
     36       2.1170      1.00000
     37       2.3611      1.00019
     38       2.3624      1.00020
     39       3.9060     -0.00000
     40       4.0820     -0.00000
     41       4.3185     -0.00000
     42       4.4194     -0.00000
     43       4.4650     -0.00000
     44       4.6429     -0.00000
     45       4.8462     -0.00000
     46       4.9607     -0.00000
     47       4.9679     -0.00000
     48       5.3839     -0.00000

 k-point   8 :       0.3333    0.3333    0.0000
  band No.  band energies     occupation 
      1     -15.7900      1.00000
      2     -15.6216      1.00000
      3     -15.1342      1.00000
      4     -14.9607      1.00000
      5     -14.8634      1.00000
      6     -14.8617      1.00000
      7     -14.6851      1.00000
      8     -14.6689      1.00000
      9      -3.3034      1.00000
     10      -3.3008      1.00000
     11      -3.0694      1.00000
     12      -3.0373      1.00000
     13      -2.8001      1.00000
     14      -2.7957      1.00000
     15      -2.7222      1.00000
     16      -2.5690      1.00000
     17      -2.3055      1.00000
     18      -2.1345      1.00000
     19      -1.7862      1.00000
     20      -1.7732      1.00000
     21      -1.5403      1.00000
     22      -1.4030      1.00000
     23      -0.7559      1.00000
     24      -0.6776      1.00000
     25      -0.4452      1.00000
     26      -0.3879      1.00000
     27      -0.2980      1.00000
     28      -0.1922      1.00000
     29       0.6523      1.00000
     30       0.6654      1.00000
     31       0.7930      1.00000
     32       0.8289      1.00000
     33       1.5689      1.00000
     34       1.6204      1.00000
     35       1.8754      1.00000
     36       2.0296      1.00000
     37       2.4129      1.00071
     38       2.4145      1.00074
     39       3.9614     -0.00000
     40       4.0481     -0.00000
     41       4.2343     -0.00000
     42       4.2622     -0.00000
     43       4.5824     -0.00000
     44       4.6414     -0.00000
     45       4.8345     -0.00000
     46       4.8998     -0.00000
     47       5.1275     -0.00000
     48       5.3156     -0.00000

 k-point   9 :       0.0000    0.4444    0.0000
  band No.  band energies     occupation 
      1     -15.3774      1.00000
      2     -15.1417      1.00000
      3     -15.1065      1.00000
      4     -15.0334      1.00000
      5     -14.9185      1.00000
      6     -14.8528      1.00000
      7     -14.8487      1.00000
      8     -14.7616      1.00000
      9      -3.7009      1.00000
     10      -3.5338      1.00000
     11      -3.2222      1.00000
     12      -3.0811      1.00000
     13      -2.6850      1.00000
     14      -2.5719      1.00000
     15      -2.5423      1.00000
     16      -2.3911      1.00000
     17      -2.2386      1.00000
     18      -2.0632      1.00000
     19      -1.9858      1.00000
     20      -1.5647      1.00000
     21      -1.1156      1.00000
     22      -1.1110      1.00000
     23      -0.8129      1.00000
     24      -0.8000      1.00000
     25      -0.4520      1.00000
     26      -0.4475      1.00000
     27      -0.1742      1.00000
     28      -0.1510      1.00000
     29       0.1049      1.00000
     30       0.4085      1.00000
     31       0.4495      1.00000
     32       0.5338      1.00000
     33       1.2914      1.00000
     34       1.3412      1.00000
     35       1.7284      1.00000
     36       2.0599      1.00000
     37       2.2916      1.00003
     38       2.4271      1.00099
     39       3.9550     -0.00000
     40       4.0809     -0.00000
     41       4.2733     -0.00000
     42       4.3045     -0.00000
     43       4.3554     -0.00000
     44       4.7469     -0.00000
     45       4.7885     -0.00000
     46       4.8563     -0.00000
     47       4.9315     -0.00000
     48       5.3634     -0.00000

 k-point  10 :       0.3333    0.4444    0.0000
  band No.  band energies     occupation 
      1     -15.3429      1.00000
      2     -15.2496      1.00000
      3     -15.0246      1.00000
      4     -15.0233      1.00000
      5     -14.9243      1.00000
      6     -14.8751      1.00000
      7     -14.8212      1.00000
      8     -14.7795      1.00000
      9      -3.6034      1.00000
     10      -3.4124      1.00000
     11      -3.3261      1.00000
     12      -3.2192      1.00000
     13      -2.7725      1.00000
     14      -2.6970      1.00000
     15      -2.6124      1.00000
     16      -2.4576      1.00000
     17      -2.0498      1.00000
     18      -2.0080      1.00000
     19      -1.7648      1.00000
     20      -1.4015      1.00000
     21      -1.1057      1.00000
     22      -1.0447      1.00000
     23      -0.9415      1.00000
     24      -0.8817      1.00000
     25      -0.5776      1.00000
     26      -0.5447      1.00000
     27      -0.1910      1.00000
     28      -0.1581      1.00000
     29       0.1851      1.00000
     30       0.3313      1.00000
     31       0.5275      1.00000
     32       0.5690      1.00000
     33       1.2902      1.00000
     34       1.3106      1.00000
     35       1.8047      1.00000
     36       1.9710      1.00000
     37       2.3637      1.00021
     38       2.4325      1.00112
     39       3.9749     -0.00000
     40       4.0881     -0.00000
     41       4.1852     -0.00000
     42       4.2783     -0.00000
     43       4.4407     -0.00000
     44       4.5527     -0.00000
     45       4.8431     -0.00000
     46       4.8952     -0.00000
     47       5.0659     -0.00000
     48       5.2817     -0.00000

 k-point  11 :       0.0000    0.0000    0.1667
  band No.  band energies     occupation 
      1     -16.6961      1.00000
      2     -16.0787      1.00000
      3     -15.8974      1.00000
      4     -15.0968      1.00000
      5     -14.8117      1.00000
      6     -14.7670      1.00000
      7     -14.5065      1.00000
      8     -14.4867      1.00000
      9      -4.3132      1.00000
     10      -3.7056      1.00000
     11      -3.5074      1.00000
     12      -3.2133      1.00000
     13      -2.8767      1.00000
     14      -2.7337      1.00000
     15      -2.6816      1.00000
     16      -2.4356      1.00000
     17      -2.1214      1.00000
     18      -2.0522      1.00000
     19      -1.9570      1.00000
     20      -1.4485      1.00000
     21      -1.1033      1.00000
     22      -0.5959      1.00000
     23      -0.2696      1.00000
     24      -0.2508      1.00000
     25      -0.2372      1.00000
     26       0.2994      1.00000
     27       0.4345      1.00000
     28       0.8714      1.00000
     29       0.9916      1.00000
     30       1.1862      1.00000
     31       1.2181      1.00000
     32       1.3223      1.00000
     33       1.3473      1.00000
     34       1.5599      1.00000
     35       1.9325      1.00000
     36       1.9448      1.00000
     37       2.4046      1.00058
     38       2.6440      1.02978
     39       3.5052     -0.00020
     40       3.7515     -0.00000
     41       3.8365     -0.00000
     42       4.2900     -0.00000
     43       4.6205     -0.00000
     44       4.7517     -0.00000
     45       4.9307     -0.00000
     46       5.3214     -0.00000
     47       5.5138     -0.00000
     48       6.0340     -0.00000

 k-point  12 :       0.3333    0.0000    0.1667
  band No.  band energies     occupation 
      1     -16.6092      1.00000
      2     -16.3646      1.00000
      3     -15.5720      1.00000
      4     -15.2384      1.00000
      5     -14.7957      1.00000
      6     -14.7755      1.00000
      7     -14.4984      1.00000
      8     -14.4890      1.00000
      9      -4.1427      1.00000
     10      -3.8218      1.00000
     11      -3.4857      1.00000
     12      -3.3389      1.00000
     13      -2.8330      1.00000
     14      -2.7209      1.00000
     15      -2.6948      1.00000
     16      -2.6274      1.00000
     17      -2.0852      1.00000
     18      -2.0035      1.00000
     19      -1.9052      1.00000
     20      -1.5950      1.00000
     21      -0.6305      1.00000
     22      -0.5128      1.00000
     23      -0.5026      1.00000
     24      -0.3401      1.00000
     25      -0.2532      1.00000
     26       0.4522      1.00000
     27       0.5398      1.00000
     28       0.7121      1.00000
     29       0.8014      1.00000
     30       1.0580      1.00000
     31       1.2446      1.00000
     32       1.4678      1.00000
     33       1.5407      1.00000
     34       1.6122      1.00000
     35       1.8127      1.00000
     36       1.8319      1.00000
     37       2.4359      1.00121
     38       2.5692      1.01350
     39       3.6880     -0.00000
     40       3.7734     -0.00000
     41       3.8121     -0.00000
     42       4.0681     -0.00000
     43       4.6600     -0.00000
     44       4.7282     -0.00000
     45       5.0310     -0.00000
     46       5.2281     -0.00000
     47       5.6818     -0.00000
     48       5.9317     -0.00000

 k-point  13 :       0.0000    0.1111    0.1667
  band No.  band energies     occupation 
      1     -16.5795      1.00000
      2     -15.9851      1.00000
      3     -15.8141      1.00000
      4     -15.0559      1.00000
      5     -14.8221      1.00000
      6     -14.7787      1.00000
      7     -14.5312      1.00000
      8     -14.5149      1.00000
      9      -4.1536      1.00000
     10      -3.5751      1.00000
     11      -3.4036      1.00000
     12      -3.1413      1.00000
     13      -2.9512      1.00000
     14      -2.7567      1.00000
     15      -2.6803      1.00000
     16      -2.5428      1.00000
     17      -2.1714      1.00000
     18      -2.0690      1.00000
     19      -1.7577      1.00000
     20      -1.2500      1.00000
     21      -1.1862      1.00000
     22      -0.8250      1.00000
     23      -0.7581      1.00000
     24      -0.3833      1.00000
     25      -0.0982      1.00000
     26       0.0384      1.00000
     27       0.3627      1.00000
     28       0.5177      1.00000
     29       0.6853      1.00000
     30       1.0469      1.00000
     31       1.2340      1.00000
     32       1.4443      1.00000
     33       1.5620      1.00000
     34       1.7398      1.00000
[...]
     17      -2.0947      1.00000
     18      -2.0900      1.00000
     19      -1.5338      1.00000
     20      -1.5147      1.00000
     21      -0.8374      1.00000
     22      -0.7847      1.00000
     23      -0.6555      1.00000
     24      -0.5387      1.00000
     25      -0.4483      1.00000
     26      -0.3137      1.00000
     27       0.1765      1.00000
     28       0.3769      1.00000
     29       0.6449      1.00000
     30       0.7653      1.00000
     31       1.1195      1.00000
     32       1.1510      1.00000
     33       1.8005      1.00000
     34       1.8391      1.00000
     35       2.1998      1.00000
     36       2.2275      1.00000
     37       2.4374      1.00003
     38       2.5655      1.00091
     39       4.2746     -0.00000
     40       4.2953     -0.00000
     41       4.4609     -0.00000
     42       4.4824     -0.00000
     43       4.6122     -0.00000
     44       4.6919     -0.00000
     45       5.0636     -0.00000
     46       5.1874     -0.00000
     47       5.4352     -0.00000
     48       5.5173     -0.00000

 k-point  39 :       0.0000    0.4444    0.5000
  band No.  band energies     occupation 
      1     -15.1162      1.00000
      2     -15.1105      1.00000
      3     -14.9232      1.00000
      4     -14.8891      1.00000
      5     -14.7979      1.00000
      6     -14.7945      1.00000
      7     -14.7435      1.00000
      8     -14.7163      1.00000
      9      -3.7834      1.00000
     10      -3.6330      1.00000
     11      -3.4053      1.00000
     12      -3.1089      1.00000
     13      -2.8586      1.00000
     14      -2.8531      1.00000
     15      -2.7420      1.00000
     16      -2.6261      1.00000
     17      -2.3312      1.00000
     18      -2.2011      1.00000
     19      -1.4278      1.00000
     20      -1.3911      1.00000
     21      -0.9561      1.00000
     22      -0.8869      1.00000
     23      -0.6632      1.00000
     24      -0.6542      1.00000
     25      -0.3316      1.00000
     26      -0.3002      1.00000
     27      -0.1374      1.00000
     28       0.4448      1.00000
     29       0.9442      1.00000
     30       1.0920      1.00000
     31       1.1618      1.00000
     32       1.2332      1.00000
     33       1.5759      1.00000
     34       1.6438      1.00000
     35       1.9305      1.00000
     36       2.1692      1.00000
     37       2.2571      1.00000
     38       2.4568      1.00005
     39       4.2465     -0.00000
     40       4.2979     -0.00000
     41       4.3741     -0.00000
     42       4.4785     -0.00000
     43       4.5446     -0.00000
     44       4.8512     -0.00000
     45       4.9576     -0.00000
     46       5.1771     -0.00000
     47       5.3691     -0.00000
     48       5.4063     -0.00000

 k-point  40 :       0.3333    0.4444    0.5000
  band No.  band energies     occupation 
      1     -15.1147      1.00000
      2     -15.1119      1.00000
      3     -14.9157      1.00000
      4     -14.8989      1.00000
      5     -14.7964      1.00000
      6     -14.7949      1.00000
      7     -14.7359      1.00000
      8     -14.7224      1.00000
      9      -3.7207      1.00000
     10      -3.6051      1.00000
     11      -3.4981      1.00000
     12      -3.3547      1.00000
     13      -2.7517      1.00000
     14      -2.6678      1.00000
     15      -2.6665      1.00000
     16      -2.5823      1.00000
     17      -2.2944      1.00000
     18      -2.1016      1.00000
     19      -1.7524      1.00000
     20      -1.6963      1.00000
     21      -0.8103      1.00000
     22      -0.7913      1.00000
     23      -0.6685      1.00000
     24      -0.6541      1.00000
     25      -0.2664      1.00000
     26      -0.2473      1.00000
     27       0.0047      1.00000
     28       0.3229      1.00000
     29       0.9359      1.00000
     30       1.0142      1.00000
     31       1.1948      1.00000
     32       1.2211      1.00000
     33       1.5867      1.00000
     34       1.6179      1.00000
     35       2.0327      1.00000
     36       2.1646      1.00000
     37       2.2984      1.00000
     38       2.3832      1.00001
     39       4.2046     -0.00000
     40       4.2543     -0.00000
     41       4.4124     -0.00000
     42       4.4949     -0.00000
     43       4.5591     -0.00000
     44       4.6958     -0.00000
     45       5.0416     -0.00000
     46       5.1532     -0.00000
     47       5.4032     -0.00000
     48       5.4322     -0.00000


--------------------------------------------------------------------------------------------------------


 soft charge-density along one line, spin component           1
         0         1         2         3         4         5         6         7         8         9
 total charge-density along one line
 
 soft charge-density along one line, spin component           2
         0         1         2         3         4         5         6         7         8         9
 total charge-density along one line
 
 pseudopotential strength for first ion, spin component:           1
 -8.457  -0.104  -0.000   0.000   0.000  -8.968  -0.102  -0.000
 -0.104  -8.425  -0.000   0.000  -0.000  -0.102  -8.937  -0.000
 -0.000  -0.000  -8.465   0.038  -0.022  -0.000  -0.000  -8.976
  0.000   0.000   0.038  -8.358   0.096   0.000   0.000   0.037
  0.000  -0.000  -0.022   0.096  -8.524   0.000  -0.000  -0.022
 -8.968  -0.102  -0.000   0.000   0.000  -9.456  -0.100  -0.000
 -0.102  -8.937  -0.000   0.000  -0.000  -0.100  -9.424  -0.000
 -0.000  -0.000  -8.976   0.037  -0.022  -0.000  -0.000  -9.463
  0.000   0.000   0.037  -8.871   0.095   0.000   0.000   0.036
  0.000  -0.000  -0.022   0.095  -9.034   0.000  -0.000  -0.022
 -0.000  -0.000  -0.010  -0.001  -0.009  -0.000  -0.000  -0.010
 -0.000  -0.000  -0.019  -0.002  -0.017  -0.000  -0.000  -0.020
 -0.009  -0.001  -0.000   0.000  -0.000  -0.009  -0.001  -0.000
  0.000   0.000   0.001  -0.002  -0.000   0.000   0.000   0.001
  0.000   0.000   0.009  -0.001  -0.008   0.000   0.000   0.009
 -0.010  -0.001  -0.000   0.000  -0.000  -0.010  -0.001  -0.000
  0.000   0.000   0.001  -0.002   0.000   0.000   0.000   0.001
  0.000   0.000   0.010  -0.001  -0.009   0.000   0.000   0.010
 pseudopotential strength for first ion, spin component:           2
 -6.917   0.254  -0.000   0.000   0.000  -7.456   0.251  -0.000
  0.254  -6.883  -0.000   0.000  -0.000   0.251  -7.422  -0.000
 -0.000  -0.000  -6.647  -0.079  -0.054  -0.000  -0.000  -7.189
  0.000   0.000  -0.079  -6.932  -0.202   0.000   0.000  -0.078
  0.000  -0.000  -0.054  -0.202  -6.784   0.000  -0.000  -0.053
 -7.456   0.251  -0.000   0.000   0.000  -7.969   0.248  -0.000
  0.251  -7.422  -0.000   0.000  -0.000   0.248  -7.936  -0.000
 -0.000  -0.000  -7.189  -0.078  -0.053  -0.000  -0.000  -7.706
  0.000   0.000  -0.078  -7.470  -0.199   0.000   0.000  -0.077
  0.000  -0.000  -0.053  -0.199  -7.324   0.000  -0.000  -0.052
 -0.000  -0.000  -0.012  -0.001  -0.004  -0.000  -0.000  -0.013
 -0.000  -0.000  -0.024  -0.001  -0.008  -0.000  -0.000  -0.024
 -0.002   0.004  -0.000   0.000  -0.000  -0.003   0.004  -0.000
  0.000   0.000   0.000  -0.004  -0.000   0.000   0.000   0.000
  0.000   0.000  -0.000   0.003  -0.001   0.000   0.000  -0.000
 -0.002   0.005  -0.000   0.000  -0.000  -0.002   0.005  -0.000
  0.000   0.000   0.000  -0.005  -0.001   0.000   0.000   0.000
  0.000   0.000  -0.001   0.004  -0.001   0.000   0.000  -0.001
 total augmentation occupancy for first ion, spin component:           1
  6.178   1.668   0.000  -0.000   0.000  -5.560  -0.147   0.000   0.000   0.000  -0.000  -0.000   0.076   0.000   0.000  -0.012
  1.668   6.173   0.000   0.000   0.000  -0.160  -5.529   0.000   0.000  -0.000  -0.000  -0.000   0.160   0.000   0.000  -0.018
  0.000   0.000   7.531  -0.388  -0.053  -0.000  -0.000  -5.488  -0.137  -0.266   0.550  -0.110   0.000  -0.084  -0.234   0.000
 -0.000  -0.000  -0.388   5.315  -0.987   0.000   0.000  -0.132  -5.230  -0.270  -0.352   0.057   0.000  -0.154  -0.087  -0.000
  0.000   0.000  -0.053  -0.987   7.498   0.000   0.000  -0.268  -0.292  -6.119   0.307  -0.069   0.000  -0.064   0.117   0.000
 -5.560  -0.160   0.000   0.000  -0.000   5.975  -1.128   0.000  -0.000   0.000   0.000   0.000  -0.085  -0.000   0.000   0.008
 -0.147  -5.529  -0.000  -0.000  -0.000  -1.128   5.916  -0.000   0.000   0.000   0.000   0.000  -0.149   0.000  -0.000   0.017
  0.000   0.000  -5.488  -0.132  -0.268  -0.000   0.000   4.716   0.581   0.516  -0.540   0.105   0.000   0.088   0.239   0.000
  0.000   0.000  -0.137  -5.230  -0.292   0.000   0.000   0.581   6.077   1.368   0.356  -0.064   0.000   0.166   0.084  -0.000
 -0.000  -0.000  -0.266  -0.270  -6.119   0.000   0.000   0.516   1.368   5.882  -0.300   0.065   0.000   0.062  -0.109   0.000
 -0.000   0.000   0.550  -0.352   0.307   0.000   0.000  -0.540   0.356  -0.300   2.935  -0.470   0.000   0.017  -0.018   0.000
 -0.000   0.000  -0.110   0.057  -0.069   0.000   0.000   0.105  -0.064   0.065  -0.470   0.099  -0.000  -0.003   0.003   0.000
  0.076   0.160   0.000   0.000  -0.000  -0.085  -0.149   0.000   0.000   0.000   0.000  -0.000   0.411  -0.000   0.000  -0.034
  0.000   0.000  -0.084  -0.154  -0.064  -0.000   0.000   0.088   0.166   0.062   0.017  -0.003  -0.000   0.359   0.013   0.000
  0.000   0.000  -0.234  -0.087   0.117   0.000  -0.000   0.239   0.084  -0.109  -0.018   0.003   0.000   0.013   0.387   0.000
 -0.012  -0.018   0.000   0.000   0.000   0.008   0.017   0.000   0.000   0.000  -0.000   0.000  -0.034   0.000   0.000   0.003
 -0.000  -0.000   0.006   0.013   0.008   0.000   0.000  -0.008  -0.015  -0.008  -0.002   0.000   0.000  -0.029  -0.001  -0.000
  0.000   0.000   0.033   0.011  -0.021   0.000  -0.000  -0.027  -0.010   0.015   0.000  -0.001   0.000  -0.002  -0.032   0.000
 total augmentation occupancy for first ion, spin component:           2
  2.980   3.579   0.000  -0.000   0.000  -1.551  -2.456  -0.000  -0.000   0.000  -0.000   0.000   0.028   0.000   0.000  -0.008
  3.579   3.080   0.000   0.000  -0.000  -2.473  -1.623  -0.000  -0.000   0.000   0.000   0.000   0.071   0.000   0.000  -0.008
  0.000  -0.000   6.265  -1.156  -0.705  -0.000   0.000  -3.836   0.787   0.527   0.107  -0.015  -0.000  -0.017  -0.095   0.000
 -0.000   0.000  -1.156   1.525  -2.873   0.000  -0.000   0.802  -0.505   1.985  -0.101  -0.000   0.000  -0.034  -0.003  -0.000
 -0.000   0.000  -0.705  -2.873   4.859   0.000  -0.000   0.529   1.951  -2.819   0.020  -0.015   0.000   0.011   0.055   0.000
 -1.551  -2.473   0.000   0.000  -0.000   0.658   1.757  -0.000   0.000   0.000  -0.000  -0.000  -0.014   0.000   0.000   0.005
 -2.456  -1.623   0.000   0.000  -0.000   1.757   0.712   0.000  -0.000   0.000  -0.000   0.000  -0.049   0.000   0.000   0.006
  0.000   0.000  -3.836   0.802   0.529  -0.000   0.000   2.281  -0.570  -0.394  -0.057   0.005   0.000   0.010   0.057  -0.000
 -0.000   0.000   0.787  -0.505   1.951   0.000   0.000  -0.570  -0.109  -1.408   0.056   0.001   0.000   0.021   0.007   0.000
  0.000  -0.000   0.527   1.985  -2.819  -0.000  -0.000  -0.394  -1.408   1.540  -0.001   0.004  -0.000  -0.005  -0.035  -0.000
 -0.000   0.000   0.107  -0.101   0.020  -0.000  -0.000  -0.057   0.056  -0.001  -0.232   0.093   0.000   0.001   0.004   0.000
  0.000   0.000  -0.015  -0.000  -0.015  -0.000   0.000   0.005   0.001   0.004   0.093  -0.019   0.000   0.001   0.000   0.000
  0.028   0.071  -0.000   0.000  -0.000  -0.014  -0.049  -0.000   0.000  -0.000   0.000   0.000   0.017   0.000   0.000  -0.000
  0.000  -0.000  -0.017  -0.034   0.011   0.000  -0.000   0.010   0.021  -0.005   0.001   0.001   0.000   0.010   0.000   0.000
  0.000   0.000  -0.095  -0.003   0.055   0.000   0.000   0.057   0.007  -0.035   0.004   0.000   0.000   0.000   0.008   0.000
 -0.008  -0.008  -0.000  -0.000   0.000   0.005   0.006  -0.000   0.000  -0.000   0.000   0.000  -0.000   0.000   0.000  -0.000
  0.000   0.000  -0.000   0.000   0.002  -0.000   0.000   0.000  -0.001  -0.001   0.000  -0.000   0.000  -0.001  -0.000   0.000
  0.000   0.000   0.018   0.004  -0.014  -0.000   0.000  -0.012  -0.003   0.009  -0.000   0.000   0.000  -0.000  -0.001   0.000


------------------------ aborting loop because EDIFF is reached ----------------------------------------


    CHARGE:  cpu time    0.07: real time    0.07
    FORLOC:  cpu time    0.00: real time    0.00
    FORNL :  cpu time    0.36: real time    0.36
    STRESS:  cpu time    0.47: real time    0.47
    FORCOR:  cpu time    0.01: real time    0.01
    FORHAR:  cpu time    0.00: real time    0.00
    MIXING:  cpu time    0.00: real time    0.00

  FORCE on cell =-STRESS in cart. coord.  units (eV):
  Direction    XX          YY          ZZ          XY          YZ          ZX
  --------------------------------------------------------------------------------------
  Alpha Z   322.36023   322.36023   322.36023
  Ewald   -1273.83629  -873.20488 -2007.20820    -0.00000    -0.00000    -0.00000
  Hartree   519.18242   726.66054    88.53865    -0.00000    -0.00000    -0.00000
  E(xc)    -369.35130  -369.44974  -369.09974     0.00000    -0.00000    -0.00000
  Local    -424.07256 -1011.70427   717.48329    -0.00000     0.00000    -0.00000
  n-local  -262.19356  -257.64294  -266.31639     0.04812    -0.09625     0.00327
  augment   173.06002   169.65217   176.06723     0.00000    -0.00000     0.00000
  Kinetic  1315.07504  1293.51057  1338.18996    -0.11451    -0.84770     0.02517
  Fock        0.00000     0.00000     0.00000     0.00000     0.00000     0.00000
  -------------------------------------------------------------------------------------
  Total       0.22400     0.18168     0.01503     0.00000    -0.00000     0.00000
  in kB       3.04002     2.46565     0.20398     0.00000    -0.00000     0.00000
  external pressure =        1.90 kB  Pullay stress =        0.00 kB


 VOLUME and BASIS-vectors are now :
 -----------------------------------------------------------------------------
  energy-cutoff  :      520.00
  volume of cell :      118.06
      direct lattice vectors                 reciprocal lattice vectors
     9.161591668  0.000000000  0.000000000     0.109151339  0.000000000  0.000000000
     0.000000000  2.836796584 -0.000000000     0.000000000  0.352510295  0.000000000
     0.000000000 -0.000000000  4.542428799     0.000000000  0.000000000  0.220146544

  length of vectors
     9.161591668  2.836796584  4.542428799     0.109151339  0.352510295  0.220146544


 FORCES acting on ions
    electron-ion (+dipol)            ewald-force                    non-local-force                 convergence-correction
 -----------------------------------------------------------------------------------------------
   -.460E+02 -.121E-10 -.734E+01   0.467E+02 0.224E-13 0.746E+01   -.637E+00 0.190E-17 -.140E+00   -.119E-01 0.257E-12 0.634E-02
   -.460E+02 0.127E-10 0.734E+01   0.467E+02 -.241E-13 -.746E+01   -.637E+00 -.121E-16 0.140E+00   -.119E-01 -.458E-12 -.634E-02
   0.460E+02 -.130E-10 0.734E+01   -.467E+02 -.258E-13 -.746E+01   0.637E+00 0.439E-17 0.140E+00   0.119E-01 -.221E-12 -.634E-02
   0.460E+02 0.127E-10 -.734E+01   -.467E+02 0.207E-13 0.746E+01   0.637E+00 -.496E-17 -.140E+00   0.119E-01 -.805E-12 0.634E-02
   0.246E+02 -.217E-10 0.388E+02   -.255E+02 -.129E-13 -.430E+02   0.841E+00 0.283E-17 0.413E+01   -.327E-02 0.520E-12 0.208E-01
   0.246E+02 -.302E-10 -.388E+02   -.255E+02 0.174E-13 0.430E+02   0.841E+00 -.179E-17 -.413E+01   -.327E-02 0.220E-11 -.208E-01
   -.246E+02 -.200E-10 -.388E+02   0.255E+02 0.175E-13 0.430E+02   -.841E+00 -.390E-17 -.413E+01   0.327E-02 0.106E-11 -.208E-01
   -.246E+02 -.214E-10 0.388E+02   0.255E+02 -.126E-13 -.430E+02   -.841E+00 -.583E-17 0.413E+01   0.327E-02 -.482E-12 0.208E-01
   -.275E+02 -.232E-10 -.211E+03   0.312E+02 -.123E-13 0.236E+03   -.374E+01 -.314E-17 -.251E+02   -.219E-01 0.103E-11 0.399E-02
   -.275E+02 -.165E-10 0.211E+03   0.312E+02 0.109E-13 -.236E+03   -.374E+01 -.779E-18 0.251E+02   -.219E-01 0.285E-12 -.399E-02
   0.275E+02 -.237E-10 0.211E+03   -.312E+02 0.140E-13 -.236E+03   0.374E+01 -.458E-18 0.251E+02   0.219E-01 -.645E-12 -.399E-02
   0.275E+02 -.192E-10 -.211E+03   -.312E+02 -.913E-14 0.236E+03   0.374E+01 -.259E-17 -.251E+02   0.219E-01 -.249E-12 0.399E-02
 -----------------------------------------------------------------------------------------------
   -.233E-11 -.176E-09 -.540E-10   -.426E-13 0.592E-14 0.000E+00   0.000E+00 -.265E-16 -.355E-14   0.206E-11 0.249E-11 -.109E-10
 
 
 POSITION                                       TOTAL-FORCE (eV/Angst)
 -----------------------------------------------------------------------------------
      1.24416      0.70920      0.15277         0.020967      0.000000     -0.007851
      5.82496      0.70920      2.11844         0.020967     -0.000000      0.007851
      7.91743      2.12760      4.38966        -0.020967     -0.000000      0.007851
      3.33664      2.12760      2.42398        -0.020967      0.000000     -0.007851
      2.54043      0.70920      1.47863         0.009399      0.000000     -0.004118
      7.12123      0.70920      0.79259         0.009399     -0.000000      0.004118
      6.62116      2.12760      3.06380        -0.009399     -0.000000      0.004118
      2.04036      2.12760      3.74984        -0.009399      0.000000     -0.004118
      4.28044      0.70920      3.23657        -0.020067     -0.000000      0.024482
      8.86124      0.70920      3.57707        -0.020067      0.000000     -0.024482
      4.88115      2.12760      1.30586         0.020067      0.000000     -0.024482
      0.30035      2.12760      0.96536         0.020067     -0.000000      0.024482
 -----------------------------------------------------------------------------------
    total drift:                               -0.000000     -0.000000     -0.000000


--------------------------------------------------------------------------------------------------------



  FREE ENERGIE OF THE ION-ELECTRON SYSTEM (eV)
  ---------------------------------------------------
  free  energy   TOTEN  =      -100.68483269 eV

  energy  without entropy=     -100.69291813  energy(sigma->0) =     -100.68752784
 
 d Force = 0.1681184E-04[-0.226E-04, 0.563E-04]  d Energy = 0.1267965E-04 0.413E-05
 d Force = 0.3330808E-01[ 0.332E-01, 0.334E-01]  d Ewald  = 0.7686016E+00-0.735E+00


--------------------------------------------------------------------------------------------------------


    POTLOK:  cpu time    0.02: real time    0.02


--------------------------------------------------------------------------------------------------------




--------------------------------------------------------------------------------------------------------


  
 reached required accuracy - stopping structural energy minimisation
     LOOP+:  cpu time    4.60: real time    5.32
    4ORBIT:  cpu time    0.00: real time    0.00

 total amount of memory used by VASP on root node    48225. kBytes
========================================================================

   base      :      30000. kBytes
   nonl-proj :       9838. kBytes
   fftplans  :        438. kBytes
   grid      :       1098. kBytes
   one-center:         93. kBytes
   wavefun   :       6758. kBytes
 
  
  
 General timing and accounting informations for this job:
 ========================================================
  
                  Total CPU time used (sec):      147.784
                            User time (sec):      147.139
                          System time (sec):        0.645
                         Elapsed time (sec):      159.925
  
                   Maximum memory used (kb):       99056.
                   Average memory used (kb):           0.
  
                          Minor page faults:        16539
                          Major page faults:            1
                 Voluntary context switches:         8956
