 vasp.5.3.3 18Dez12 (build May 12 2016 12:04:25) complex                        
  
 executed on             LinuxIFC date 2017.12.01  12:49:16
 running on   16 total cores
 distrk:  each k-point on   16 cores,    1 groups
 distr:  one band on NCORES_PER_BAND=   2 cores,    8 groups


--------------------------------------------------------------------------------------------------------


 INCAR:
 POTCAR:    PAW_PBE Mn 06Sep2000                  
 POTCAR:    PAW_PBE O 08Apr2002                   
 POTCAR:    PAW_PBE Li 17Jan2003                  
 POTCAR:    PAW_PBE Mn 06Sep2000                  
  local pseudopotential read in
  partial core-charges read in
  partial kinetic energy density read in
  atomic valenz-charges read in
  non local Contribution for L=           2  read in
    real space projection operators read in
  non local Contribution for L=           2  read in
    real space projection operators read in
  non local Contribution for L=           0  read in
    real space projection operators read in
  non local Contribution for L=           0  read in
    real space projection operators read in
  non local Contribution for L=           1  read in
    real space projection operators read in
  non local Contribution for L=           1  read in
    real space projection operators read in
    PAW grid and wavefunctions read in
 
   number of l-projection  operators is LMAX  =           6
   number of lm-projection operators is LMMAX =          18
 
 POTCAR:    PAW_PBE O 08Apr2002                   
  local pseudopotential read in
  partial core-charges read in
  partial kinetic energy density read in
  kinetic energy density of atom read in
  atomic valenz-charges read in
  non local Contribution for L=           0  read in
    real space projection operators read in
  non local Contribution for L=           0  read in
    real space projection operators read in
  non local Contribution for L=           1  read in
    real space projection operators read in
  non local Contribution for L=           1  read in
    real space projection operators read in
    PAW grid and wavefunctions read in
 
   number of l-projection  operators is LMAX  =           4
   number of lm-projection operators is LMMAX =           8
 
 POTCAR:    PAW_PBE Li 17Jan2003                  
  local pseudopotential read in
  partial core-charges read in
  partial kinetic energy density read in
  atomic valenz-charges read in
  non local Contribution for L=           0  read in
    real space projection operators read in
  non local Contribution for L=           0  read in
    real space projection operators read in
  non local Contribution for L=           1  read in
    real space projection operators read in
    PAW grid and wavefunctions read in
 
   number of l-projection  operators is LMAX  =           3
   number of lm-projection operators is LMMAX =           5
 
  PAW_PBE Mn 06Sep2000                  :
 energy of atom  1       EATOM= -416.7541
 kinetic energy error for atom=    0.0024 (will be added to EATOM!!)
  PAW_PBE O 08Apr2002                   :
 energy of atom  2       EATOM= -432.3788
 kinetic energy error for atom=    0.0208 (will be added to EATOM!!)
  PAW_PBE Li 17Jan2003                  :
 energy of atom  3       EATOM=   -5.3001
 kinetic energy error for atom=    0.0000 (will be added to EATOM!!)
 
 
 POSCAR:                                         
  positions in direct lattice
  velocities in cartesian coordinates
 exchange correlation table for  LEXCH =        8
   RHO(1)=    0.500       N(1)  =     2000
   RHO(2)=  100.500       N(2)  =     4000
 


--------------------------------------------------------------------------------------------------------


 ion  position               nearest neighbor table
   1  0.250  0.049  0.136-   8 1.94   8 1.94  12 1.95  12 1.95   5 2.25  10 2.54  13 2.57  13 2.60
                            16 3.05  16 3.05
   2  0.250  0.451  0.636-   7 1.94   7 1.94  11 1.95  11 1.95   6 2.25   9 2.54  14 2.57  14 2.60
                            15 3.05  15 3.05
   3  0.750  0.951  0.864-   6 1.94   6 1.94  10 1.95  10 1.95   7 2.25  12 2.54  15 2.57  15 2.60
                            14 3.05  14 3.05
   4  0.750  0.549  0.364-   5 1.94   5 1.94   9 1.95   9 1.95   8 2.25  11 2.54  16 2.57  16 2.60
                            13 3.05  13 3.05
   5  0.250  0.325  0.301-   4 1.94   4 1.94  16 2.23  16 2.23   1 2.25  13 2.33
   6  0.250  0.175  0.801-   3 1.94   3 1.94  15 2.23  15 2.23   2 2.25  14 2.33
   7  0.750  0.675  0.699-   2 1.94   2 1.94  14 2.23  14 2.23   3 2.25  15 2.33
   8  0.750  0.825  0.199-   1 1.94   1 1.94  13 2.23  13 2.23   4 2.25  16 2.33
   9  0.250  0.752  0.444-   4 1.95   4 1.95  14 2.02  16 2.14  16 2.14   2 2.54
  10  0.250  0.748  0.944-   3 1.95   3 1.95  13 2.02  15 2.14  15 2.14   1 2.54
  11  0.750  0.248  0.556-   2 1.95   2 1.95  16 2.02  14 2.14  14 2.14   4 2.54
  12  0.750  0.252  0.056-   1 1.95   1 1.95  15 2.02  13 2.14  13 2.14   3 2.54
  13  0.250  0.546  0.109-  10 2.02  12 2.14  12 2.14   8 2.23   8 2.23   5 2.33   1 2.57   1 2.60
                            15 2.74  15 2.74   4 3.05   4 3.05
  14  0.250  0.954  0.609-   9 2.02  11 2.14  11 2.14   7 2.23   7 2.23   6 2.33   2 2.57   2 2.60
                            16 2.74  16 2.74   3 3.05   3 3.05
  15  0.750  0.454  0.891-  12 2.02  10 2.14  10 2.14   6 2.23   6 2.23   7 2.33   3 2.57   3 2.60
                            13 2.74  13 2.74   2 3.05   2 3.05
  16  0.750  0.046  0.391-  11 2.02   9 2.14   9 2.14   5 2.23   5 2.23   8 2.33   4 2.57   4 2.60
                            14 2.74  14 2.74   1 3.05   1 3.05
 
  LATTYP: Found a simple orthorhombic cell.
 ALAT       =     2.8359849573
 B/A-ratio  =     1.8122158395
 C/A-ratio  =     3.7237520170
  
  Lattice vectors:
  
 A1 = (   0.0000000000,   2.8359849573,   0.0000000000)
 A2 = (   0.0000000000,   0.0000000000,   5.1394168602)
 A3 = (  10.5605047050,   0.0000000000,   0.0000000000)


Analysis of symmetry for initial positions (statically):
=====================================================================
 Subroutine PRICEL returns:
 Original cell was already a primitive cell.
 

 Routine SETGRP: Setting up the symmetry group for a 
 simple orthorhombic supercell.


 Subroutine GETGRP returns: Found  8 space group operations
 (whereof  2 operations were pure point group operations)
 out of a pool of  8 trial point group operations.


The static configuration has the point symmetry S_2 .
 The point group associated with its full space group is D_2h.


Analysis of symmetry for dynamics (positions and initial velocities):
=====================================================================
 Subroutine PRICEL returns:
 Original cell was already a primitive cell.
 

 Routine SETGRP: Setting up the symmetry group for a 
 simple orthorhombic supercell.


 Subroutine GETGRP returns: Found  8 space group operations
 (whereof  2 operations were pure point group operations)
 out of a pool of  8 trial point group operations.


The dynamic configuration has the point symmetry S_2 .
 The point group associated with its full space group is D_2h.


Analysis of magnetic symmetry:
=====================================================================

 Subroutine MAGSYM returns: Found  8 space group operations
 (whereof  2 operations were pure point group operations)
 out of a pool of  8 trial space group operations
 (whereof  2 operations were pure point group operations)
 and found also     1 'primitive' translations


The magnetic configuration has the point symmetry S_2 .
 The point group associated with its full space group is D_2h.


 irot  :   1
 --------------------------------------------------------------------
 isymop:   1   0   0
           0   1   0
           0   0   1

 gtrans:     0.0000000     0.0000000     0.0000000

 ptrans:     0.0000000     0.0000000     0.0000000
 rotmap:
 (   1->   1)  (   2->   2)  (   3->   3)  (   4->   4)  (   5->   5) 
 (   6->   6)  (   7->   7)  (   8->   8)  (   9->   9)  (  10->  10) 
 (  11->  11)  (  12->  12)  (  13->  13)  (  14->  14)  (  15->  15) 
 (  16->  16) 


 irot  :   2
 --------------------------------------------------------------------
 isymop:  -1   0   0
           0  -1   0
           0   0  -1

 gtrans:     0.0000000     0.0000000     0.0000000

 ptrans:     0.0000000     0.0000000     0.0000000
 rotmap:
 (   1->   3)  (   2->   4)  (   3->   1)  (   4->   2)  (   5->   7) 
 (   6->   8)  (   7->   5)  (   8->   6)  (   9->  11)  (  10->  12) 
 (  11->   9)  (  12->  10)  (  13->  15)  (  14->  16)  (  15->  13) 
 (  16->  14) 


 irot  :   3
 --------------------------------------------------------------------
 isymop:  -1   0   0
           0  -1   0
           0   0   1

 gtrans:     0.5000000     0.5000000     0.5000000

 ptrans:     0.0000000     0.0000000     0.0000000
 rotmap:
 (   1->   2)  (   2->   1)  (   3->   4)  (   4->   3)  (   5->   6) 
 (   6->   5)  (   7->   8)  (   8->   7)  (   9->  10)  (  10->   9) 
 (  11->  12)  (  12->  11)  (  13->  14)  (  14->  13)  (  15->  16) 
 (  16->  15) 


 irot  :   4
 --------------------------------------------------------------------
 isymop:   1   0   0
           0   1   0
           0   0  -1

 gtrans:     0.5000000     0.5000000     0.5000000

 ptrans:     0.0000000     0.0000000     0.0000000
 rotmap:
 (   1->   4)  (   2->   3)  (   3->   2)  (   4->   1)  (   5->   8) 
 (   6->   7)  (   7->   6)  (   8->   5)  (   9->  12)  (  10->  11) 
 (  11->  10)  (  12->   9)  (  13->  16)  (  14->  15)  (  15->  14) 
 (  16->  13) 


 irot  :   5
 --------------------------------------------------------------------
 isymop:  -1   0   0
           0   1   0
           0   0  -1

 gtrans:     0.0000000     0.5000000     0.5000000

 ptrans:     0.0000000     0.0000000     0.0000000
 rotmap:
 (   1->   4)  (   2->   3)  (   3->   2)  (   4->   1)  (   5->   8) 
 (   6->   7)  (   7->   6)  (   8->   5)  (   9->  12)  (  10->  11) 
 (  11->  10)  (  12->   9)  (  13->  16)  (  14->  15)  (  15->  14) 
 (  16->  13) 


 irot  :   6
 --------------------------------------------------------------------
 isymop:   1   0   0
           0  -1   0
           0   0   1

 gtrans:     0.0000000     0.5000000     0.5000000

 ptrans:     0.0000000     0.0000000     0.0000000
 rotmap:
 (   1->   2)  (   2->   1)  (   3->   4)  (   4->   3)  (   5->   6) 
 (   6->   5)  (   7->   8)  (   8->   7)  (   9->  10)  (  10->   9) 
 (  11->  12)  (  12->  11)  (  13->  14)  (  14->  13)  (  15->  16) 
 (  16->  15) 


 irot  :   7
 --------------------------------------------------------------------
 isymop:   1   0   0
           0  -1   0
           0   0  -1

 gtrans:     0.5000000     0.0000000     0.0000000

 ptrans:     0.0000000     0.0000000     0.0000000
 rotmap:
 (   1->   3)  (   2->   4)  (   3->   1)  (   4->   2)  (   5->   7) 
 (   6->   8)  (   7->   5)  (   8->   6)  (   9->  11)  (  10->  12) 
 (  11->   9)  (  12->  10)  (  13->  15)  (  14->  16)  (  15->  13) 
 (  16->  14) 


 irot  :   8
 --------------------------------------------------------------------
 isymop:  -1   0   0
           0   1   0
           0   0   1

 gtrans:     0.5000000     0.0000000     0.0000000

 ptrans:     0.0000000     0.0000000     0.0000000
 rotmap:
 (   1->   1)  (   2->   2)  (   3->   3)  (   4->   4)  (   5->   5) 
 (   6->   6)  (   7->   7)  (   8->   8)  (   9->   9)  (  10->  10) 
 (  11->  11)  (  12->  12)  (  13->  13)  (  14->  14)  (  15->  15) 
 (  16->  16) 
 
 
 KPOINTS: con0.6                                  

Automatic generation of k-mesh.
Space group operators:
 irot       det(A)        alpha          n_x          n_y          n_z        tau_x        tau_y        tau_z
    1     1.000000     0.000000     1.000000     0.000000     0.000000     0.000000     0.000000     0.000000
    2    -1.000000     0.000000     1.000000     0.000000     0.000000     0.000000     0.000000     0.000000
    3     1.000000   180.000000     1.000000     0.000000     0.000000     0.500000     0.500000     0.500000
    4    -1.000000   180.000000     1.000000     0.000000     0.000000     0.500000     0.500000     0.500000
    5     1.000000   180.000000     0.000000     0.000000     1.000000     0.000000     0.500000     0.500000
    6    -1.000000   180.000000     0.000000     0.000000     1.000000     0.000000     0.500000     0.500000
    7     1.000000   180.000000     0.000000     1.000000     0.000000     0.500000     0.000000     0.000000
    8    -1.000000   180.000000     0.000000     1.000000     0.000000     0.500000     0.000000     0.000000
 
 Subroutine IBZKPT returns following result:
 ===========================================
 
 Found     24 irreducible k-points:
 
 Following reciprocal coordinates:
            Coordinates               Weight
  0.000000  0.000000  0.000000      1.000000
  0.166667  0.000000  0.000000      2.000000
  0.333333  0.000000  0.000000      2.000000
  0.500000  0.000000  0.000000      1.000000
  0.000000  0.250000  0.000000      2.000000
  0.166667  0.250000  0.000000      4.000000
  0.333333  0.250000  0.000000      4.000000
  0.500000  0.250000  0.000000      2.000000
  0.000000  0.500000  0.000000      1.000000
  0.166667  0.500000  0.000000      2.000000
  0.333333  0.500000  0.000000      2.000000
  0.500000  0.500000  0.000000      1.000000
  0.000000  0.000000  0.500000      1.000000
  0.166667  0.000000  0.500000      2.000000
  0.333333  0.000000  0.500000      2.000000
  0.500000  0.000000  0.500000      1.000000
  0.000000  0.250000  0.500000      2.000000
  0.166667  0.250000  0.500000      4.000000
  0.333333  0.250000  0.500000      4.000000
  0.500000  0.250000  0.500000      2.000000
  0.000000  0.500000  0.500000      1.000000
  0.166667  0.500000  0.500000      2.000000
  0.333333  0.500000  0.500000      2.000000
  0.500000  0.500000  0.500000      1.000000
 
 Following cartesian coordinates:
            Coordinates               Weight
  0.000000  0.000000  0.000000      1.000000
  0.000000  0.058769  0.000000      2.000000
  0.000000  0.117537  0.000000      2.000000
  0.000000  0.176306  0.000000      1.000000
  0.000000  0.000000  0.048644      2.000000
  0.000000  0.058769  0.048644      4.000000
  0.000000  0.117537  0.048644      4.000000
  0.000000  0.176306  0.048644      2.000000
  0.000000  0.000000  0.097287      1.000000
  0.000000  0.058769  0.097287      2.000000
  0.000000  0.117537  0.097287      2.000000
  0.000000  0.176306  0.097287      1.000000
  0.047346  0.000000  0.000000      1.000000
  0.047346  0.058769  0.000000      2.000000
  0.047346  0.117537  0.000000      2.000000
  0.047346  0.176306  0.000000      1.000000
  0.047346  0.000000  0.048644      2.000000
  0.047346  0.058769  0.048644      4.000000
  0.047346  0.117537  0.048644      4.000000
  0.047346  0.176306  0.048644      2.000000
  0.047346  0.000000  0.097287      1.000000
  0.047346  0.058769  0.097287      2.000000
  0.047346  0.117537  0.097287      2.000000
  0.047346  0.176306  0.097287      1.000000
 
 TETIRR: Found    144 inequivalent tetrahedra from      288


--------------------------------------------------------------------------------------------------------




 Dimension of arrays:
   k-points           NKPTS =     24   k-points in BZ     NKDIM =     24   number of bands    NBANDS=     56
   number of dos      NEDOS =    301   number of ions     NIONS =     16
   non local maximal  LDIM  =      6   non local SUM 2l+1 LMDIM =     18
   total plane-waves  NPLWV =  28800
   max r-space proj   IRMAX =      1   max aug-charges    IRDMAX=   7078
   dimension x,y,z NGX =    16 NGY =   30 NGZ =   60
   dimension x,y,z NGXF=    32 NGYF=   60 NGZF=  120
   support grid    NGXF=    32 NGYF=   60 NGZF=  120
   ions per type =               4   8   4
 NGX,Y,Z   is equivalent  to a cutoff of   9.38,  9.70,  9.45 a.u.
 NGXF,Y,Z  is equivalent  to a cutoff of  18.76, 19.41, 18.89 a.u.


 I would recommend the setting:
   dimension x,y,z NGX =    16 NGY =   29 NGZ =   59
 SYSTEM =  unknown system                          
 POSCAR =                                          

 Startparameter for this run:
   NWRITE =      1    write-flag & timer
   PREC   = normal    normal or accurate (medium, high low for compatibility)
   ISTART =      1    job   : 0-new  1-cont  2-samecut
   ICHARG =     11    charge: 1-file 2-atom 10-const
   ISPIN  =      2    spin polarized calculation?
   LNONCOLLINEAR =      F non collinear calculations
   LSORBIT =      F    spin-orbit coupling
   INIWAV =      1    electr: 0-lowe 1-rand  2-diag
   LASPH  =      F    aspherical Exc in radial PAW
   METAGGA=      F    non-selfconsistent MetaGGA calc.

 Electronic Relaxation 1
   ENCUT  =  520.0 eV  38.22 Ry    6.18 a.u.   5.27  9.56 19.64*2*pi/ulx,y,z
   ENINI  =  520.0     initial cutoff
   ENAUG  =  605.4 eV  augmentation charge cutoff
   NELM   =     60;   NELMIN=  5; NELMDL=  0     # of ELM steps 
   EDIFF  = 0.1E-04   stopping-criterion for ELM
   LREAL  =      F    real-space projection
   NLSPLINE    = F    spline interpolate recip. space projectors
   LCOMPAT=      F    compatible to vasp.4.4
   GGA_COMPAT  = T    GGA compatible to vasp.4.4-vasp.4.6
   LMAXPAW     = -100 max onsite density
   LMAXMIX     =    4 max onsite mixed and CHGCAR
   VOSKOWN=      1    Vosko Wilk Nusair interpolation
   ROPT   =    0.00000   0.00000   0.00000
 Ionic relaxation
   EDIFFG = -.2E-01   stopping-criterion for IOM
   NSW    =      0    number of steps for IOM
   NBLOCK =      1;   KBLOCK =      1    inner block; outer block 
   IBRION =     -1    ionic relax: 0-MD 1-quasi-New 2-CG
   NFREE  =      0    steps in history (QN), initial steepest desc. (CG)
   ISIF   =      2    stress and relaxation
   IWAVPR =     10    prediction:  0-non 1-charg 2-wave 3-comb
   ISYM   =      2    0-nonsym 1-usesym 2-fastsym
   LCORR  =      T    Harris-Foulkes like correction to forces

   POTIM  = 0.5000    time-step for ionic-motion
   TEIN   =    0.0    initial temperature
   TEBEG  =    0.0;   TEEND  =   0.0 temperature during run
   SMASS  =  -3.00    Nose mass-parameter (am)
   estimated Nose-frequenzy (Omega)   =  0.10E-29 period in steps =****** mass=  -0.184E-27a.u.
   SCALEE = 1.0000    scale energy and forces
   NPACO  =    256;   APACO  = 16.0  distance and # of slots for P.C.
   PSTRESS=    0.0 pullay stress

  Mass of Ions in am
   POMASS =  54.94 16.00  7.01
  Ionic Valenz
   ZVAL   =   7.00  6.00  1.00
  Atomic Wigner-Seitz radii
   RWIGS  =  -1.00 -1.00 -1.00
  virtual crystal weights 
   VCA    =   1.00  1.00  1.00
   NELECT =      80.0000    total number of electrons
   NUPDOWN=      -1.0000    fix difference up-down

 DOS related values:
   EMIN   =  10.00;   EMAX   =-10.00  energy-range for DOS
   EFERMI =   0.00
   ISMEAR =    -5;   SIGMA  =   0.20  broadening in eV -4-tet -1-fermi 0-gaus

 Electronic relaxation 2 (details)
   IALGO  =     38    algorithm
   LDIAG  =      T    sub-space diagonalisation (order eigenvalues)
   LSUBROT=      T    optimize rotation matrix (better conditioning)
   TURBO    =      0    0=normal 1=particle mesh
   IRESTART =      0    0=no restart 2=restart with 2 vectors
   NREBOOT  =      0    no. of reboots
   NMIN     =      0    reboot dimension
   EREF     =   0.00    reference energy to select bands
   IMIX   =      4    mixing-type and parameters
     AMIX     =   0.40;   BMIX     =  1.00
     AMIX_MAG =   1.60;   BMIX_MAG =  1.00
     AMIN     =   0.10
     WC   =   100.;   INIMIX=   1;  MIXPRE=   1;  MAXMIX= -45

 Intra band minimization:
   WEIMIN = 0.0000     energy-eigenvalue tresh-hold
   EBREAK =  0.45E-07  absolut break condition
   DEPER  =   0.30     relativ break condition  

   TIME   =   0.40     timestep for ELM

  volume/ion in A,a.u.               =       9.62        64.92
  Fermi-wavevector in a.u.,A,eV,Ry     =   1.316247  2.487346 23.572172  1.732506
  Thomas-Fermi vector in A             =   2.446372
 
 Write flags
   LWAVE  =      T    write WAVECAR
   LCHARG =      T    write CHGCAR
   LVTOT  =      F    write LOCPOT, total local potential
   LVHAR  =      F    write LOCPOT, Hartree potential only
   LELF   =      F    write electronic localiz. function (ELF)
   LORBIT =     11    0 simple, 1 ext, 2 COOP (PROOUT)


 Dipole corrections
   LMONO  =      F    monopole corrections only (constant potential shift)
   LDIPOL =      F    correct potential (dipole corrections)
   IDIPOL =      0    1-x, 2-y, 3-z, 4-all directions 
   EPSILON=  1.0000000 bulk dielectric constant

 LDA+U is selected, type is set to LDAUTYPE =  2
   angular momentum for each species LDAUL =     2   -1   -1
   U (eV)           for each species LDAUU =   3.9  0.0  0.0
   J (eV)           for each species LDAUJ =   0.0  0.0  0.0
 Exchange correlation treatment:
   GGA     =    --    GGA type
   LEXCH   =     8    internal setting for exchange type
   VOSKOWN=      1    Vosko Wilk Nusair interpolation
   LHFCALC =     F    Hartree Fock is set to
   LHFONE  =     F    Hartree Fock one center treatment
   AEXX    =    0.0000 exact exchange contribution

 Linear response parameters
   LEPSILON=     F    determine dielectric tensor
   LRPA    =     F    only Hartree local field effects (RPA)
   LNABLA  =     F    use nabla operator in PAW spheres
   LVEL    =     F    velocity operator in full k-point grid
   LINTERFAST=   F  fast interpolation
   KINTER  =     0    interpolate to denser k-point grid
   CSHIFT  =0.1000    complex shift for real part using Kramers Kronig
   OMEGAMAX=  -1.0    maximum frequency
   DEG_THRESHOLD= 0.2000000E-02 threshold for treating states as degnerate
   RTIME   =    0.100 relaxation time in fs

 Orbital magnetization related:
   ORBITALMAG=     F  switch on orbital magnetization
   LCHIMAG   =     F  perturbation theory with respect to B field
   DQ        =  0.001000  dq finite difference perturbation B field



--------------------------------------------------------------------------------------------------------


 Static calculation
 charge density and potential remain constant during run
 spin polarized calculation
 Variant of blocked Davidson
 Davidson routine will perform the subspace rotation
 perform sub-space diagonalisation
    after iterative eigenvector-optimisation
 no mixing
 using additional bands           16
 reciprocal scheme for non local part
 use partial core corrections
 calculate Harris-corrections to forces 
   (improved forces if not selfconsistent)
 use gradient corrections 
 WARNING: stress and forces are not correct
  (second derivative of E(xc) not defined)
 use of overlap-Matrix (Vanderbilt PP)
 Fermi weights with tetrahedron method with Bloechl corrections


--------------------------------------------------------------------------------------------------------


  energy-cutoff  :      520.00
  volume of cell :      153.92
      direct lattice vectors                 reciprocal lattice vectors
     0.000000000  2.835984957  0.000000000     0.000000000  0.352611179  0.000000000
     0.000000000  0.000000000  5.139416860     0.000000000  0.000000000  0.194574604
    10.560504705  0.000000000  0.000000000     0.094692444  0.000000000  0.000000000

  length of vectors
     2.835984957  5.139416860 10.560504705     0.352611179  0.194574604  0.094692444


 
 old parameters found on file WAVECAR:
  energy-cutoff  :      520.00
  volume of cell :      153.92
      direct lattice vectors                 reciprocal lattice vectors
     0.000000000  2.835984957  0.000000000     0.000000000  0.352611179  0.000000000
     0.000000000  0.000000000  5.139416860     0.000000000  0.000000000  0.194574604
    10.560504705  0.000000000  0.000000000     0.094692444  0.000000000  0.000000000

  length of vectors

 
 k-points in units of 2pi/SCALE and weight: con0.6                                  
   0.00000000  0.00000000  0.00000000       0.021
   0.00000000  0.05876853  0.00000000       0.042
   0.00000000  0.11753706  0.00000000       0.042
   0.00000000  0.17630559  0.00000000       0.021
   0.00000000  0.00000000  0.04864365       0.042
   0.00000000  0.05876853  0.04864365       0.083
   0.00000000  0.11753706  0.04864365       0.083
   0.00000000  0.17630559  0.04864365       0.042
   0.00000000  0.00000000  0.09728730       0.021
   0.00000000  0.05876853  0.09728730       0.042
   0.00000000  0.11753706  0.09728730       0.042
   0.00000000  0.17630559  0.09728730       0.021
   0.04734622  0.00000000  0.00000000       0.021
   0.04734622  0.05876853  0.00000000       0.042
   0.04734622  0.11753706  0.00000000       0.042
   0.04734622  0.17630559  0.00000000       0.021
   0.04734622  0.00000000  0.04864365       0.042
   0.04734622  0.05876853  0.04864365       0.083
   0.04734622  0.11753706  0.04864365       0.083
   0.04734622  0.17630559  0.04864365       0.042
   0.04734622  0.00000000  0.09728730       0.021
   0.04734622  0.05876853  0.09728730       0.042
   0.04734622  0.11753706  0.09728730       0.042
   0.04734622  0.17630559  0.09728730       0.021
 
 k-points in reciprocal lattice and weights: con0.6                                  
   0.00000000  0.00000000  0.00000000       0.021
   0.16666667  0.00000000  0.00000000       0.042
   0.33333333  0.00000000  0.00000000       0.042
   0.50000000  0.00000000  0.00000000       0.021
   0.00000000  0.25000000  0.00000000       0.042
   0.16666667  0.25000000  0.00000000       0.083
   0.33333333  0.25000000  0.00000000       0.083
   0.50000000  0.25000000  0.00000000       0.042
   0.00000000  0.50000000  0.00000000       0.021
   0.16666667  0.50000000  0.00000000       0.042
   0.33333333  0.50000000  0.00000000       0.042
   0.50000000  0.50000000  0.00000000       0.021
   0.00000000  0.00000000  0.50000000       0.021
   0.16666667  0.00000000  0.50000000       0.042
   0.33333333  0.00000000  0.50000000       0.042
   0.50000000  0.00000000  0.50000000       0.021
   0.00000000  0.25000000  0.50000000       0.042
   0.16666667  0.25000000  0.50000000       0.083
   0.33333333  0.25000000  0.50000000       0.083
   0.50000000  0.25000000  0.50000000       0.042
   0.00000000  0.50000000  0.50000000       0.021
   0.16666667  0.50000000  0.50000000       0.042
   0.33333333  0.50000000  0.50000000       0.042
   0.50000000  0.50000000  0.50000000       0.021
 
 position of ions in fractional coordinates (direct lattice) 
   0.25000000  0.04869923  0.13550072
   0.25000000  0.45130077  0.63550072
   0.75000000  0.95130077  0.86449928
   0.75000000  0.54869923  0.36449928
   0.25000000  0.32483270  0.30138818
   0.25000000  0.17516730  0.80138818
   0.75000000  0.67516730  0.69861182
   0.75000000  0.82483270  0.19861182
   0.25000000  0.75239075  0.44427298
   0.25000000  0.74760925  0.94427298
   0.75000000  0.24760925  0.55572702
   0.75000000  0.25239075  0.05572702
   0.25000000  0.54615397  0.10852469
   0.25000000  0.95384603  0.60852469
   0.75000000  0.45384603  0.89147531
   0.75000000  0.04615397  0.39147531
 
 position of ions in cartesian coordinates  (Angst):
   1.43095602  0.70899624  0.25028567
   6.71120838  0.70899624  2.31942276
   9.12954868  2.12698872  4.88913119
   3.84929633  2.12698872  2.81999410
   3.18281127  0.70899624  1.66945068
   8.46306362  0.70899624  0.90025775
   7.37769344  2.12698872  3.46996618
   2.09744109  2.12698872  4.23915911
   4.69174690  0.70899624  3.86684972
   9.97199925  0.70899624  3.84227557
   5.86875780  2.12698872  1.27256714
   0.58850545  2.12698872  1.29714129
   1.14607548  0.70899624  2.80691292
   6.42632784  0.70899624  4.90221238
   9.41442922  2.12698872  2.33250395
   4.13417687  2.12698872  0.23720448
 


--------------------------------------------------------------------------------------------------------


 k-point  1 :   0.0000 0.0000 0.0000  plane waves:    4151
 k-point  2 :   0.1667 0.0000 0.0000  plane waves:    4133
 k-point  3 :   0.3333 0.0000 0.0000  plane waves:    4146
 k-point  4 :   0.5000 0.0000 0.0000  plane waves:    4174
 k-point  5 :   0.0000 0.2500 0.0000  plane waves:    4153
 k-point  6 :   0.1667 0.2500 0.0000  plane waves:    4162
 k-point  7 :   0.3333 0.2500 0.0000  plane waves:    4132
 k-point  8 :   0.5000 0.2500 0.0000  plane waves:    4132
 k-point  9 :   0.0000 0.5000 0.0000  plane waves:    4156
 k-point 10 :   0.1667 0.5000 0.0000  plane waves:    4142
 k-point 11 :   0.3333 0.5000 0.0000  plane waves:    4130
 k-point 12 :   0.5000 0.5000 0.0000  plane waves:    4148
 k-point 13 :   0.0000 0.0000 0.5000  plane waves:    4140
 k-point 14 :   0.1667 0.0000 0.5000  plane waves:    4132
 k-point 15 :   0.3333 0.0000 0.5000  plane waves:    4150
 k-point 16 :   0.5000 0.0000 0.5000  plane waves:    4148
 k-point 17 :   0.0000 0.2500 0.5000  plane waves:    4154
 k-point 18 :   0.1667 0.2500 0.5000  plane waves:    4138
 k-point 19 :   0.3333 0.2500 0.5000  plane waves:    4142
 k-point 20 :   0.5000 0.2500 0.5000  plane waves:    4164
 k-point 21 :   0.0000 0.5000 0.5000  plane waves:    4160
 k-point 22 :   0.1667 0.5000 0.5000  plane waves:    4148
 k-point 23 :   0.3333 0.5000 0.5000  plane waves:    4116
 k-point 24 :   0.5000 0.5000 0.5000  plane waves:    4128

 maximum and minimum number of plane-waves per node :      2100     2050

 maximum number of plane-waves:      4174
 maximum index in each direction: 
   IXMAX=    5   IYMAX=    9   IZMAX=   19
   IXMIN=   -5   IYMIN=  -10   IZMIN=  -20

 WARNING: aliasing errors must be expected set NGX to  22 to avoid them
 WARNING: aliasing errors must be expected set NGY to  40 to avoid them
 WARNING: aliasing errors must be expected set NGZ to  80 to avoid them
 aliasing errors are usually negligible using standard VASP settings
 and one can safely disregard these warnings

 parallel 3D FFT for wavefunctions:
    minimum data exchange during FFTs selected (reduces bandwidth)
 parallel 3D FFT for charge:
    minimum data exchange during FFTs selected (reduces bandwidth)


 total amount of memory used by VASP on root node    67716. kBytes
========================================================================

   base      :      30000. kBytes
   nonl-proj :      22352. kBytes
   fftplans  :        930. kBytes
   grid      :       2445. kBytes
   one-center:        248. kBytes
   wavefun   :      11741. kBytes
 
 initial charge density was supplied:
 number of electron      80.0000056 magnetization      -0.0000000
 keeping initial charge density in first step


--------------------------------------------------------------------------------------------------------


 Maximum index for augmentation-charges          454 (set IRDMAX)


--------------------------------------------------------------------------------------------------------


 First call to EWALD:  gamma=   0.331
 Maximum number of real-space cells 5x 3x 2
 Maximum number of reciprocal cells 2x 3x 5

 FEWALD executed in parallel
    FEWALD:  cpu time    0.00: real time    0.00


----------------------------------------- Iteration    1(   1)  ---------------------------------------


    POTLOK:  cpu time    0.02: real time    0.02
    SETDIJ:  cpu time    0.01: real time    0.01
     EDDAV:  cpu time    1.59: real time    1.59
 BZINTS: Fermi energy:  2.939211; 80.000000 electrons
         Band energy:-237.857343;  BLOECHL correction:  0.000000
       DOS:  cpu time    0.00: real time    0.00
    --------------------------------------------
      LOOP:  cpu time    1.62: real time    1.93

 eigenvalue-minimisations  :  3856
 total energy-change (2. order) :-0.1045611E+03  (-0.1221750E-06)
 number of electron      80.0000056 magnetization      -0.0000000
 augmentation part       80.0000056 magnetization      -0.0000000

 Free energy of the ion-electron system (eV)
  ---------------------------------------------------
  alpha Z        PSCENC =       265.70341246
  Ewald energy   TEWEN  =     -4056.19037329
  -1/2 Hartree   DENC   =     -1489.52130217
  -exchange  EXHF       =         0.00000000
  -V(xc)+E(xc)   XCENC  =       177.17390655
  PAW double counting   =      6347.44327882    -6258.38387346
  entropy T*S    EENTRO =         0.00000000
  eigenvalues    EBANDS =      -237.85734313
  atomic energy  EATOM  =      5147.07115823
  ---------------------------------------------------
  free energy    TOTEN  =      -104.56113598 eV

  energy without entropy =     -104.56113598  energy(sigma->0) =     -104.56113598


--------------------------------------------------------------------------------------------------------




----------------------------------------- Iteration    1(   2)  ---------------------------------------


     EDDAV:  cpu time    1.53: real time    1.53
 BZINTS: Fermi energy:  2.938136; 80.000000 electrons
         Band energy:-237.857343;  BLOECHL correction:  0.000000
       DOS:  cpu time    0.00: real time    0.00
    --------------------------------------------
      LOOP:  cpu time    1.54: real time    1.63

 eigenvalue-minimisations  :  3680
 total energy-change (2. order) :-0.5166635E-07  (-0.5164242E-07)
 number of electron      80.0000056 magnetization      -0.0000000
 augmentation part       80.0000056 magnetization      -0.0000000

 Free energy of the ion-electron system (eV)
  ---------------------------------------------------
  alpha Z        PSCENC =       265.70341246
  Ewald energy   TEWEN  =     -4056.19037329
  -1/2 Hartree   DENC   =     -1489.52130217
  -exchange  EXHF       =         0.00000000
  -V(xc)+E(xc)   XCENC  =       177.17390655
  PAW double counting   =      6347.44327882    -6258.38387346
  entropy T*S    EENTRO =         0.00000000
  eigenvalues    EBANDS =      -237.85734318
  atomic energy  EATOM  =      5147.07115823
  ---------------------------------------------------
  free energy    TOTEN  =      -104.56113603 eV

  energy without entropy =     -104.56113603  energy(sigma->0) =     -104.56113603


--------------------------------------------------------------------------------------------------------




----------------------------------------- Iteration    1(   3)  ---------------------------------------


     EDDAV:  cpu time    1.52: real time    1.52
 BZINTS: Fermi energy:  2.937509; 80.000000 electrons
         Band energy:-237.857343;  BLOECHL correction:  0.000000
       DOS:  cpu time    0.00: real time    0.00
    --------------------------------------------
      LOOP:  cpu time    1.52: real time    1.75

 eigenvalue-minimisations  :  3624
 total energy-change (2. order) :-0.2781508E-07  (-0.2770041E-07)
 number of electron      80.0000056 magnetization      -0.0000000
 augmentation part       80.0000056 magnetization      -0.0000000

 Free energy of the ion-electron system (eV)
  ---------------------------------------------------
  alpha Z        PSCENC =       265.70341246
  Ewald energy   TEWEN  =     -4056.19037329
  -1/2 Hartree   DENC   =     -1489.52130217
  -exchange  EXHF       =         0.00000000
  -V(xc)+E(xc)   XCENC  =       177.17390655
  PAW double counting   =      6347.44327882    -6258.38387346
  entropy T*S    EENTRO =         0.00000000
  eigenvalues    EBANDS =      -237.85734321
  atomic energy  EATOM  =      5147.07115823
  ---------------------------------------------------
  free energy    TOTEN  =      -104.56113606 eV

  energy without entropy =     -104.56113606  energy(sigma->0) =     -104.56113606


--------------------------------------------------------------------------------------------------------




----------------------------------------- Iteration    1(   4)  ---------------------------------------


     EDDAV:  cpu time    1.51: real time    1.51
 BZINTS: Fermi energy:  2.937133; 80.000000 electrons
         Band energy:-237.857343;  BLOECHL correction:  0.000000
       DOS:  cpu time    0.00: real time    0.00
    --------------------------------------------
      LOOP:  cpu time    1.52: real time    1.73

 eigenvalue-minimisations  :  3608
 total energy-change (2. order) :-0.1622084E-07  (-0.1614929E-07)
 number of electron      80.0000056 magnetization      -0.0000000
 augmentation part       80.0000056 magnetization      -0.0000000

 Free energy of the ion-electron system (eV)
  ---------------------------------------------------
  alpha Z        PSCENC =       265.70341246
  Ewald energy   TEWEN  =     -4056.19037329
  -1/2 Hartree   DENC   =     -1489.52130217
  -exchange  EXHF       =         0.00000000
  -V(xc)+E(xc)   XCENC  =       177.17390655
  PAW double counting   =      6347.44327882    -6258.38387346
  entropy T*S    EENTRO =         0.00000000
  eigenvalues    EBANDS =      -237.85734322
  atomic energy  EATOM  =      5147.07115823
  ---------------------------------------------------
  free energy    TOTEN  =      -104.56113607 eV

  energy without entropy =     -104.56113607  energy(sigma->0) =     -104.56113607


--------------------------------------------------------------------------------------------------------




----------------------------------------- Iteration    1(   5)  ---------------------------------------


     EDDAV:  cpu time    1.50: real time    1.50
 BZINTS: Fermi energy:  2.936912; 80.000000 electrons
         Band energy:-237.857343;  BLOECHL correction:  0.000000
       DOS:  cpu time    0.00: real time    0.00
    --------------------------------------------
      LOOP:  cpu time    1.51: real time    1.61

 eigenvalue-minimisations  :  3576
 total energy-change (2. order) :-0.9641099E-08  (-0.9742152E-08)
 number of electron      80.0000056 magnetization      -0.0000000
 augmentation part       80.0000056 magnetization      -0.0000000

 Free energy of the ion-electron system (eV)
  ---------------------------------------------------
  alpha Z        PSCENC =       265.70341246
  Ewald energy   TEWEN  =     -4056.19037329
  -1/2 Hartree   DENC   =     -1489.52130217
  -exchange  EXHF       =         0.00000000
  -V(xc)+E(xc)   XCENC  =       177.17390655
  PAW double counting   =      6347.44327882    -6258.38387346
  entropy T*S    EENTRO =         0.00000000
  eigenvalues    EBANDS =      -237.85734323
  atomic energy  EATOM  =      5147.07115823
  ---------------------------------------------------
  free energy    TOTEN  =      -104.56113608 eV

  energy without entropy =     -104.56113608  energy(sigma->0) =     -104.56113608


--------------------------------------------------------------------------------------------------------




 average (electrostatic) potential at core
  the test charge radii are     1.0210  0.7215  0.9748
  (the norm of the test charge is              1.0000)
       1 -46.8500       2 -46.8500       3 -46.8500       4 -46.8500       5 -71.2815
       6 -71.2815       7 -71.2815       8 -71.2815       9 -71.1619      10 -71.1619
      11 -71.1619      12 -71.1619      13 -25.3692      14 -25.3692      15 -25.3692
      16 -25.3692
 
 
 
 E-fermi :   2.9369     XC(G=0): -10.7418     alpha+bet :-12.1031


 spin component 1

 k-point   1 :       0.0000    0.0000    0.0000
  band No.  band energies     occupation 
      1     -15.1617      1.00000
      2     -14.8492      1.00000
      3     -14.7183      1.00000
      4     -14.3097      1.00000
      5     -14.0375      1.00000
      6     -13.9705      1.00000
      7     -13.8807      1.00000
      8     -13.8714      1.00000
      9      -3.4790      1.00000
     10      -3.3429      1.00000
     11      -2.3711      1.00000
     12      -2.2999      1.00000
     13      -1.9638      1.00000
     14      -1.9541      1.00000
     15      -1.4610      1.00000
     16      -1.4105      1.00000
     17      -1.3912      1.00000
     18      -0.9772      1.00000
     19      -0.6894      1.00000
     20      -0.5175      1.00000
     21      -0.4826      1.00000
     22      -0.1981      1.00000
     23      -0.1205      1.00000
     24      -0.0705      1.00000
     25      -0.0579      1.00000
     26       0.1795      1.00000
     27       0.3371      1.00000
     28       0.5170      1.00000
     29       0.7837      1.00000
     30       1.0582      1.00000
     31       1.1523      1.00000
     32       1.3397      1.00000
     33       1.5123      1.00000
     34       1.6204      1.00000
     35       1.8735      1.00000
     36       1.9199      1.00000
     37       2.0102      1.00000
     38       2.0635      1.00000
     39       2.5502      1.00000
     40       2.6327      1.00000
     41       5.4405      0.00000
     42       5.4652      0.00000
     43       6.0760      0.00000
     44       6.1324      0.00000
     45       6.8558      0.00000
     46       6.9764      0.00000
     47       7.2028      0.00000
     48       7.2191      0.00000
     49       7.3970      0.00000
     50       7.6494      0.00000
     51       7.7460      0.00000
     52       7.7868      0.00000
     53       8.5713      0.00000
     54       9.7515      0.00000
     55      10.1314      0.00000
     56      10.7567      0.00000

 k-point   2 :       0.1667    0.0000    0.0000
  band No.  band energies     occupation 
      1     -14.9430      1.00000
      2     -14.6647      1.00000
      3     -14.5430      1.00000
      4     -14.1857      1.00000
      5     -14.0051      1.00000
      6     -13.9516      1.00000
      7     -13.8670      1.00000
      8     -13.8640      1.00000
      9      -3.0571      1.00000
     10      -2.9339      1.00000
     11      -2.2004      1.00000
     12      -2.1708      1.00000
     13      -1.9392      1.00000
     14      -1.8911      1.00000
     15      -1.7309      1.00000
     16      -1.4859      1.00000
     17      -1.4815      1.00000
     18      -1.2683      1.00000
     19      -1.1269      1.00000
     20      -0.8864      1.00000
     21      -0.6822      1.00000
     22      -0.5332      1.00000
     23      -0.4438      1.00000
     24       0.1254      1.00000
     25       0.2556      1.00000
     26       0.2851      1.00000
     27       0.3162      1.00000
     28       0.4930      1.00000
     29       0.5989      1.00000
     30       0.7909      1.00000
     31       0.8858      1.00000
     32       1.2066      1.00000
     33       1.3742      1.00000
     34       1.5582      1.00000
     35       1.6926      1.00000
     36       1.7546      1.00000
     37       1.9657      1.00000
     38       2.0886      1.00000
     39       2.3968      1.00000
     40       2.6218      1.00000
     41       4.7795      0.00000
     42       4.8901      0.00000
     43       6.5017      0.00000
     44       6.5228      0.00000
     45       6.8728      0.00000
     46       6.9097      0.00000
     47       7.0288      0.00000
     48       7.2332      0.00000
     49       7.2581      0.00000
     50       7.3579      0.00000
     51       7.3644      0.00000
     52       7.6516      0.00000
     53       9.3169      0.00000
     54      10.3538      0.00000
     55      10.6243      0.00000
     56      11.7028      0.00000

 k-point   3 :       0.3333    0.0000    0.0000
  band No.  band energies     occupation 
      1     -14.4294      1.00000
      2     -14.2658      1.00000
      3     -14.1632      1.00000
      4     -13.9978      1.00000
      5     -13.9245      1.00000
      6     -13.9152      1.00000
      7     -13.8619      1.00000
      8     -13.8259      1.00000
      9      -2.6202      1.00000
     10      -2.4513      1.00000
     11      -2.3886      1.00000
     12      -2.1967      1.00000
     13      -1.8875      1.00000
     14      -1.8205      1.00000
     15      -1.6309      1.00000
     16      -1.6291      1.00000
     17      -1.4753      1.00000
     18      -1.3805      1.00000
     19      -1.2583      1.00000
     20      -1.0868      1.00000
     21      -0.8581      1.00000
     22      -0.8323      1.00000
     23      -0.7628      1.00000
     24      -0.7011      1.00000
     25      -0.0105      1.00000
     26       0.1160      1.00000
     27       0.3239      1.00000
     28       0.3870      1.00000
     29       0.4499      1.00000
     30       0.6441      1.00000
     31       0.7355      1.00000
     32       0.8588      1.00000
     33       0.9359      1.00000
     34       1.1442      1.00000
     35       1.3063      1.00000
     36       1.3439      1.00000
     37       1.6070      1.00000
     38       1.9875      1.00000
     39       2.4156      1.00000
     40       2.5992      1.00000
     41       4.5900      0.00000
     42       4.8643      0.00000
     43       6.4947      0.00000
     44       6.5954      0.00000
     45       7.0052      0.00000
     46       7.0067      0.00000
     47       7.1345      0.00000
     48       7.1715      0.00000
     49       7.3196      0.00000
     50       7.4213      0.00000
     51       7.4892      0.00000
     52       7.6573      0.00000
     53      10.5654      0.00000
     54      10.7552      0.00000
     55      11.0455      0.00000
     56      12.8892      0.00000

 k-point   4 :       0.5000    0.0000    0.0000
  band No.  band energies     occupation 
      1     -14.0358      1.00000
      2     -14.0358      1.00000
      3     -13.9741      1.00000
      4     -13.9741      1.00000
      5     -13.9061      1.00000
      6     -13.9061      1.00000
      7     -13.8383      1.00000
      8     -13.8383      1.00000
      9      -3.0335      1.00000
     10      -3.0335      1.00000
     11      -2.5446      1.00000
     12      -2.5446      1.00000
     13      -1.5806      1.00000
     14      -1.5806      1.00000
     15      -1.3241      1.00000
     16      -1.3241      1.00000
     17      -1.1407      1.00000
     18      -1.1407      1.00000
     19      -0.8500      1.00000
     20      -0.8500      1.00000
     21      -0.7627      1.00000
     22      -0.7627      1.00000
     23      -0.6644      1.00000
     24      -0.6644      1.00000
     25      -0.2383      1.00000
     26      -0.2383      1.00000
     27      -0.0723      1.00000
     28      -0.0723      1.00000
     29       0.1356      1.00000
     30       0.1356      1.00000
     31       0.6099      1.00000
     32       0.6099      1.00000
     33       0.7179      1.00000
     34       0.7179      1.00000
     35       1.1721      1.00000
     36       1.1721      1.00000
     37       1.6494      1.00000
     38       1.6494      1.00000
     39       2.6407      1.00000
     40       2.6407      1.00000
     41       5.0122      0.00000
     42       5.0122      0.00000
     43       6.3451      0.00000
     44       6.3451      0.00000
     45       7.0447      0.00000
     46       7.0447      0.00000
     47       7.2267      0.00000
     48       7.2267      0.00000
     49       7.6398      0.00000
     50       7.6398      0.00000
     51       7.7807      0.00000
     52       7.7807      0.00000
     53      10.6119      0.00000
     54      10.6119      0.00000
     55      11.9607      0.00000
     56      11.9607      0.00000

 k-point   5 :       0.0000    0.2500    0.0000
  band No.  band energies     occupation 
      1     -15.0748      1.00000
      2     -14.7856      1.00000
      3     -14.7343      1.00000
      4     -14.4120      1.00000
      5     -14.0972      1.00000
      6     -13.9737      1.00000
      7     -13.9067      1.00000
      8     -13.8463      1.00000
      9      -3.4699      1.00000
     10      -3.3169      1.00000
     11      -2.3554      1.00000
     12      -2.2564      1.00000
     13      -2.0589      1.00000
     14      -1.8617      1.00000
     15      -1.4785      1.00000
     16      -1.4406      1.00000
     17      -1.3872      1.00000
     18      -0.7751      1.00000
     19      -0.6983      1.00000
     20      -0.6821      1.00000
     21      -0.5226      1.00000
     22      -0.2778      1.00000
     23      -0.1208      1.00000
     24      -0.0452      1.00000
     25       0.0473      1.00000
     26       0.1161      1.00000
     27       0.3457      1.00000
     28       0.5761      1.00000
     29       0.8036      1.00000
     30       0.9598      1.00000
     31       1.2899      1.00000
     32       1.4154      1.00000
     33       1.5550      1.00000
     34       1.6372      1.00000
     35       1.6381      1.00000
     36       1.8665      1.00000
     37       1.8773      1.00000
     38       2.0893      1.00000
     39       2.4757      1.00000
     40       2.8180      1.00000
     41       5.3708      0.00000
     42       5.4706      0.00000
     43       6.0395      0.00000
     44       6.1891      0.00000
     45       6.9093      0.00000
     46       6.9730      0.00000
     47       7.2154      0.00000
     48       7.2166      0.00000
     49       7.3856      0.00000
     50       7.6065      0.00000
     51       7.7072      0.00000
     52       7.7828      0.00000
     53       8.9277      0.00000
     54      10.1152      0.00000
     55      10.2383      0.00000
     56      11.1011      0.00000

 k-point   6 :       0.1667    0.2500    0.0000
  band No.  band energies     occupation 
      1     -14.8615      1.00000
      2     -14.6037      1.00000
      3     -14.5517      1.00000
      4     -14.2691      1.00000
      5     -14.0673      1.00000
      6     -13.9528      1.00000
      7     -13.8952      1.00000
      8     -13.8501      1.00000
      9      -3.0599      1.00000
     10      -2.9172      1.00000
     11      -2.2057      1.00000
     12      -2.1260      1.00000
     13      -1.9971      1.00000
     14      -1.8980      1.00000
     15      -1.6431      1.00000
     16      -1.6037      1.00000
     17      -1.4698      1.00000
     18      -1.3137      1.00000
     19      -1.1047      1.00000
     20      -0.8453      1.00000
     21      -0.5452      1.00000
     22      -0.5253      1.00000
     23      -0.4091      1.00000
     24       0.0081      1.00000
     25       0.0830      1.00000
     26       0.3346      1.00000
     27       0.3683      1.00000
     28       0.5860      1.00000
     29       0.7647      1.00000
     30       0.8575      1.00000
     31       0.9031      1.00000
     32       1.0028      1.00000
     33       1.2855      1.00000
     34       1.5487      1.00000
     35       1.5893      1.00000
     36       1.8129      1.00000
     37       1.8574      1.00000
     38       2.1172      1.00000
     39       2.4196      1.00000
     40       2.6746      1.00000
     41       4.8313      0.00000
     42       4.8808      0.00000
     43       6.4454      0.00000
     44       6.5888      0.00000
     45       6.8789      0.00000
     46       6.9175      0.00000
     47       7.0608      0.00000
     48       7.2348      0.00000
     49       7.2582      0.00000
     50       7.3578      0.00000
     51       7.4119      0.00000
     52       7.6537      0.00000
     53       9.7085      0.00000
     54      10.6440      0.00000
     55      10.8780      0.00000
     56      11.7643      0.00000

 k-point   7 :       0.3333    0.2500    0.0000
  band No.  band energies     occupation 
      1     -14.3719      1.00000
      2     -14.2240      1.00000
      3     -14.1520      1.00000
      4     -14.0301      1.00000
      5     -13.9771      1.00000
      6     -13.9183      1.00000
      7     -13.8704      1.00000
      8     -13.8490      1.00000
      9      -2.6741      1.00000
     10      -2.4786      1.00000
     11      -2.4138      1.00000
     12      -2.2211      1.00000
     13      -1.9396      1.00000
     14      -1.8485      1.00000
     15      -1.7524      1.00000
     16      -1.5640      1.00000
     17      -1.4412      1.00000
     18      -1.3721      1.00000
     19      -1.2945      1.00000
     20      -1.1267      1.00000
     21      -0.9803      1.00000
     22      -0.8744      1.00000
     23      -0.7011      1.00000
     24      -0.4491      1.00000
     25       0.0553      1.00000
     26       0.0869      1.00000
     27       0.1560      1.00000
     28       0.4354      1.00000
     29       0.5854      1.00000
     30       0.6671      1.00000
     31       0.6936      1.00000
     32       0.8561      1.00000
     33       1.0925      1.00000
     34       1.2087      1.00000
     35       1.2447      1.00000
     36       1.4114      1.00000
     37       1.6935      1.00000
     38       2.0059      1.00000
     39       2.4195      1.00000
     40       2.5497      1.00000
     41       4.6280      0.00000
     42       4.8428      0.00000
     43       6.4607      0.00000
     44       6.5729      0.00000
     45       6.9592      0.00000
     46       6.9968      0.00000
     47       7.1517      0.00000
     48       7.1619      0.00000
     49       7.2836      0.00000
     50       7.4745      0.00000
     51       7.5518      0.00000
     52       7.6653      0.00000
     53      10.8247      0.00000
     54      11.0549      0.00000
     55      11.3485      0.00000
     56      12.5655      0.00000

 k-point   8 :       0.5000    0.2500    0.0000
  band No.  band energies     occupation 
      1     -14.0310      1.00000
      2     -14.0310      1.00000
      3     -13.9897      1.00000
      4     -13.9897      1.00000
      5     -13.8883      1.00000
      6     -13.8883      1.00000
      7     -13.8423      1.00000
      8     -13.8423      1.00000
      9      -3.0720      1.00000
     10      -3.0720      1.00000
     11      -2.5590      1.00000
     12      -2.5590      1.00000
     13      -1.7974      1.00000
     14      -1.7974      1.00000
     15      -1.4077      1.00000
     16      -1.4077      1.00000
     17      -1.1287      1.00000
     18      -1.1287      1.00000
     19      -0.9186      1.00000
     20      -0.9186      1.00000
     21      -0.7612      1.00000
     22      -0.7612      1.00000
     23      -0.6350      1.00000
     24      -0.6350      1.00000
     25      -0.1380      1.00000
     26      -0.1380      1.00000
     27       0.0605      1.00000
     28       0.0605      1.00000
     29       0.1623      1.00000
     30       0.1623      1.00000
     31       0.6812      1.00000
     32       0.6812      1.00000
     33       0.8456      1.00000
     34       0.8456      1.00000
     35       1.2893      1.00000
     36       1.2893      1.00000
     37       1.6504      1.00000
     38       1.6504      1.00000
     39       2.5969      1.00000
     40       2.5969      1.00000
     41       4.9958      0.00000
     42       4.9958      0.00000
     43       6.2977      0.00000
     44       6.2977      0.00000
     45       6.9928      0.00000
     46       6.9928      0.00000
     47       7.2268      0.00000
     48       7.2268      0.00000
     49       7.6382      0.00000
     50       7.6382      0.00000
     51       7.7806      0.00000
     52       7.7806      0.00000
     53      10.9008      0.00000
     54      10.9008      0.00000
     55      11.9558      0.00000
     56      11.9558      0.00000

 k-point   9 :       0.0000    0.5000    0.0000
  band No.  band energies     occupation 
      1     -14.9031      1.00000
      2     -14.8382      1.00000
      3     -14.6501      1.00000
      4     -14.5845      1.00000
      5     -14.0882      1.00000
      6     -14.0717      1.00000
      7     -13.8840      1.00000
      8     -13.8421      1.00000
      9      -3.4967      1.00000
     10      -3.2615      1.00000
     11      -2.3117      1.00000
     12      -2.2319      1.00000
     13      -2.0648      1.00000
     14      -1.8769      1.00000
     15      -1.4921      1.00000
     16      -1.4634      1.00000
     17      -1.3900      1.00000
     18      -0.7110      1.00000
     19      -0.6780      1.00000
     20      -0.5171      1.00000
     21      -0.3851      1.00000
     22      -0.3045      1.00000
     23      -0.2225      1.00000
     24      -0.1819      1.00000
     25      -0.0228      1.00000
     26       0.0334      1.00000
     27       0.2799      1.00000
     28       0.5150      1.00000
     29       0.8732      1.00000
     30       1.0149      1.00000
     31       1.4250      1.00000
     32       1.4415      1.00000
     33       1.4619      1.00000
     34       1.5860      1.00000
     35       1.6979      1.00000
     36       1.7429      1.00000
     37       1.7986      1.00000
     38       2.1359      1.00000
     39       2.5540      1.00000
     40       2.8488      1.00000
     41       5.3096      0.00000
     42       5.4679      0.00000
     43       6.0133      0.00000
     44       6.2064      0.00000
     45       6.9195      0.00000
     46       6.9663      0.00000
     47       7.2142      0.00000
     48       7.2351      0.00000
     49       7.3455      0.00000
     50       7.5811      0.00000
     51       7.6741      0.00000
     52       7.7731      0.00000
     53       9.4896      0.00000
     54      10.3064      0.00000
     55      10.9274      0.00000
     56      11.3709      0.00000

 k-point  10 :       0.1667    0.5000    0.0000
  band No.  band energies     occupation 
      1     -14.6929      1.00000
      2     -14.6512      1.00000
      3     -14.4662      1.00000
      4     -14.4312      1.00000
      5     -14.0541      1.00000
      6     -14.0500      1.00000
      7     -13.8775      1.00000
      8     -13.8547      1.00000
      9      -3.0947      1.00000
     10      -2.8768      1.00000
     11      -2.1447      1.00000
     12      -2.0849      1.00000
     13      -2.0547      1.00000
     14      -1.8775      1.00000
     15      -1.7433      1.00000
     16      -1.6723      1.00000
     17      -1.4317      1.00000
     18      -1.3037      1.00000
     19      -1.1074      1.00000
     20      -0.6792      1.00000
     21      -0.5602      1.00000
     22      -0.5336      1.00000
     23      -0.2824      1.00000
     24      -0.1132      1.00000
     25       0.1953      1.00000
     26       0.2597      1.00000
     27       0.3532      1.00000
     28       0.5995      1.00000
     29       0.7247      1.00000
     30       0.7895      1.00000
     31       0.9816      1.00000
     32       1.0223      1.00000
     33       1.1842      1.00000
     34       1.3905      1.00000
     35       1.6034      1.00000
     36       1.8502      1.00000
     37       1.8620      1.00000
     38       2.0802      1.00000
     39       2.5449      1.00000
     40       2.6554      1.00000
     41       4.8124      0.00000
     42       4.9548      0.00000
     43       6.4053      0.00000
     44       6.6102      0.00000
     45       6.8980      0.00000
     46       6.9519      0.00000
     47       7.0676      0.00000
     48       7.2237      0.00000
     49       7.2395      0.00000
     50       7.3532      0.00000
     51       7.4831      0.00000
     52       7.6295      0.00000
     53      10.2898      0.00000
     54      11.0319      0.00000
     55      11.5202      0.00000
     56      11.7453      0.00000

 k-point  11 :       0.3333    0.5000    0.0000
  band No.  band energies     occupation 
      1     -14.2414      1.00000
      2     -14.2337      1.00000
      3     -14.1302      1.00000
      4     -14.1006      1.00000
      5     -13.9971      1.00000
      6     -13.9544      1.00000
      7     -13.8786      1.00000
      8     -13.8660      1.00000
      9      -2.7209      1.00000
     10      -2.5233      1.00000
     11      -2.3954      1.00000
     12      -2.2371      1.00000
     13      -1.9694      1.00000
     14      -1.9232      1.00000
     15      -1.8249      1.00000
     16      -1.5522      1.00000
     17      -1.5000      1.00000
     18      -1.4066      1.00000
     19      -1.2689      1.00000
     20      -1.0532      1.00000
     21      -0.9847      1.00000
     22      -0.8626      1.00000
     23      -0.8169      1.00000
     24      -0.3230      1.00000
     25       0.0042      1.00000
     26       0.0967      1.00000
     27       0.2084      1.00000
     28       0.4838      1.00000
     29       0.6836      1.00000
     30       0.7573      1.00000
     31       0.8180      1.00000
     32       0.8862      1.00000
     33       0.9797      1.00000
     34       1.2279      1.00000
     35       1.2903      1.00000
     36       1.3705      1.00000
     37       1.8610      1.00000
     38       1.9416      1.00000
     39       2.4548      1.00000
     40       2.4929      1.00000
     41       4.5738      0.00000
     42       4.9195      0.00000
     43       6.4662      0.00000
     44       6.5322      0.00000
     45       6.9443      0.00000
     46       6.9671      0.00000
     47       7.0917      0.00000
     48       7.1466      0.00000
     49       7.4099      0.00000
     50       7.4247      0.00000
     51       7.5952      0.00000
     52       7.6691      0.00000
     53      11.4126      0.00000
     54      11.7363      0.00000
     55      11.9512      0.00000
     56      12.0268      0.00000

 k-point  12 :       0.5000    0.5000    0.0000
  band No.  band energies     occupation 
      1     -14.0270      1.00000
      2     -14.0270      1.00000
      3     -14.0000      1.00000
      4     -14.0000      1.00000
      5     -13.8755      1.00000
      6     -13.8755      1.00000
      7     -13.8463      1.00000
      8     -13.8463      1.00000
      9      -3.1115      1.00000
     10      -3.1115      1.00000
     11      -2.5673      1.00000
     12      -2.5673      1.00000
     13      -1.9681      1.00000
     14      -1.9681      1.00000
     15      -1.4479      1.00000
     16      -1.4479      1.00000
     17      -1.1459      1.00000
     18      -1.1459      1.00000
     19      -0.9895      1.00000
     20      -0.9895      1.00000
     21      -0.7933      1.00000
     22      -0.7933      1.00000
     23      -0.6194      1.00000
     24      -0.6194      1.00000
     25      -0.0535      1.00000
     26      -0.0535      1.00000
     27       0.1419      1.00000
     28       0.1419      1.00000
     29       0.2504      1.00000
     30       0.2504      1.00000
     31       0.7290      1.00000
     32       0.7290      1.00000
     33       0.9543      1.00000
     34       0.9543      1.00000
     35       1.4938      1.00000
     36       1.4938      1.00000
     37       1.6261      1.00000
     38       1.6261      1.00000
     39       2.5330      1.00000
     40       2.5330      1.00000
     41       4.9674      0.00000
     42       4.9674      0.00000
     43       6.2487      0.00000
     44       6.2487      0.00000
     45       6.9344      0.00000
     46       6.9344      0.00000
     47       7.2279      0.00000
     48       7.2279      0.00000
     49       7.6729      0.00000
     50       7.6729      0.00000
     51       7.7415      0.00000
     52       7.7415      0.00000
     53      11.5984      0.00000
     54      11.5984      0.00000
     55      11.7973      0.00000
     56      11.7973      0.00000

 k-point  13 :       0.0000    0.0000    0.5000
  band No.  band energies     occupation 
      1     -15.0821      1.00000
      2     -15.0375      1.00000
      3     -14.4794      1.00000
      4     -14.4469      1.00000
      5     -14.0142      1.00000
      6     -14.0091      1.00000
      7     -13.8890      1.00000
      8     -13.8407      1.00000
      9      -3.4753      1.00000
     10      -3.3447      1.00000
     11      -2.2894      1.00000
     12      -2.2186      1.00000
     13      -2.1719      1.00000
     14      -1.9683      1.00000
     15      -1.4104      1.00000
     16      -1.3933      1.00000
     17      -1.3912      1.00000
     18      -0.9422      1.00000
     19      -0.6962      1.00000
     20      -0.5042      1.00000
     21      -0.4816      1.00000
     22      -0.3622      1.00000
     23      -0.1964      1.00000
     24      -0.0995      1.00000
     25      -0.0385      1.00000
     26       0.0770      1.00000
     27       0.4169      1.00000
     28       0.7442      1.00000
     29       0.8871      1.00000
     30       1.2474      1.00000
     31       1.2482      1.00000
     32       1.3176      1.00000
     33       1.4629      1.00000
     34       1.6866      1.00000
     35       1.6968      1.00000
     36       1.8176      1.00000
     37       1.8252      1.00000
     38       2.0631      1.00000
     39       2.5008      1.00000
     40       2.7194      1.00000
     41       5.4486      0.00000
     42       5.4576      0.00000
     43       6.0726      0.00000
     44       6.1376      0.00000
     45       6.9748      0.00000
     46       7.0363      0.00000
     47       7.2090      0.00000
     48       7.2204      0.00000
     49       7.3874      0.00000
     50       7.5518      0.00000
     51       7.7458      0.00000
     52       7.7868      0.00000
     53       8.6298      0.00000
     54       9.1813      0.00000
     55      10.9000      0.00000
     56      11.1113      0.00000

 k-point  14 :       0.1667    0.0000    0.5000
  band No.  band energies     occupation 
      1     -14.8679      1.00000
      2     -14.8355      1.00000
      3     -14.3243      1.00000
      4     -14.3135      1.00000
      5     -13.9883      1.00000
      6     -13.9857      1.00000
      7     -13.8763      1.00000
      8     -13.8325      1.00000
      9      -3.0539      1.00000
     10      -2.9354      1.00000
     11      -2.1656      1.00000
     12      -2.1420      1.00000
     13      -2.0398      1.00000
     14      -1.8054      1.00000
     15      -1.7638      1.00000
     16      -1.5118      1.00000
     17      -1.4810      1.00000
     18      -1.3178      1.00000
     19      -1.1173      1.00000
     20      -0.8875      1.00000
     21      -0.5698      1.00000
     22      -0.5574      1.00000
     23      -0.4137      1.00000
     24       0.0152      1.00000
     25       0.0710      1.00000
     26       0.2556      1.00000
     27       0.3556      1.00000
     28       0.6676      1.00000
     29       0.7110      1.00000
     30       0.7382      1.00000
     31       1.0701      1.00000
     32       1.1637      1.00000
     33       1.3113      1.00000
     34       1.4844      1.00000
     35       1.7206      1.00000
     36       1.7300      1.00000
     37       1.8973      1.00000
     38       2.1281      1.00000
     39       2.3296      1.00000
     40       2.6935      1.00000
     41       4.8127      0.00000
     42       4.8258      0.00000
     43       6.4998      0.00000
     44       6.5228      0.00000
     45       6.8757      0.00000
     46       6.9025      0.00000
     47       7.1484      0.00000
     48       7.2284      0.00000
     49       7.2652      0.00000
     50       7.3472      0.00000
     51       7.3622      0.00000
     52       7.6176      0.00000
     53       9.3435      0.00000
     54       9.8364      0.00000
     55      11.5081      0.00000
     56      11.7628      0.00000

 k-point  15 :       0.3333    0.0000    0.5000
  band No.  band energies     occupation 
      1     -14.3745      1.00000
      2     -14.3698      1.00000
      3     -14.0628      1.00000
      4     -14.0283      1.00000
      5     -13.9407      1.00000
      6     -13.9345      1.00000
      7     -13.8585      1.00000
      8     -13.8147      1.00000
      9      -2.6172      1.00000
     10      -2.4510      1.00000
     11      -2.4106      1.00000
     12      -2.1845      1.00000
     13      -1.8968      1.00000
     14      -1.8236      1.00000
     15      -1.6290      1.00000
     16      -1.6286      1.00000
     17      -1.4271      1.00000
     18      -1.4118      1.00000
     19      -1.1029      1.00000
     20      -1.0906      1.00000
     21      -1.0167      1.00000
     22      -0.9107      1.00000
     23      -0.7667      1.00000
     24      -0.6092      1.00000
     25       0.0773      1.00000
     26       0.0829      1.00000
     27       0.2250      1.00000
     28       0.3604      1.00000
     29       0.3947      1.00000
     30       0.6516      1.00000
     31       0.8111      1.00000
     32       0.8402      1.00000
     33       1.0380      1.00000
     34       1.1844      1.00000
     35       1.2514      1.00000
     36       1.3081      1.00000
     37       1.6774      1.00000
     38       1.9392      1.00000
     39       2.4104      1.00000
     40       2.5834      1.00000
     41       4.6464      0.00000
     42       4.8041      0.00000
     43       6.4898      0.00000
     44       6.6044      0.00000
     45       6.9947      0.00000
     46       7.0055      0.00000
     47       7.1690      0.00000
     48       7.1727      0.00000
     49       7.3229      0.00000
     50       7.4085      0.00000
     51       7.4970      0.00000
     52       7.6370      0.00000
     53      10.3910      0.00000
     54      10.7671      0.00000
     55      11.7642      0.00000
     56      11.9465      0.00000

 k-point  16 :       0.5000    0.0000    0.5000
  band No.  band energies     occupation 
      1     -14.0355      1.00000
      2     -14.0355      1.00000
      3     -13.9744      1.00000
      4     -13.9744      1.00000
      5     -13.9060      1.00000
      6     -13.9060      1.00000
      7     -13.8383      1.00000
      8     -13.8383      1.00000
      9      -3.0203      1.00000
     10      -3.0203      1.00000
     11      -2.5563      1.00000
     12      -2.5563      1.00000
     13      -1.6377      1.00000
     14      -1.6377      1.00000
     15      -1.3145      1.00000
     16      -1.3145      1.00000
     17      -1.1146      1.00000
     18      -1.1146      1.00000
     19      -0.8326      1.00000
     20      -0.8326      1.00000
     21      -0.7510      1.00000
     22      -0.7510      1.00000
     23      -0.6129      1.00000
     24      -0.6129      1.00000
     25      -0.3098      1.00000
     26      -0.3098      1.00000
     27      -0.0568      1.00000
     28      -0.0568      1.00000
     29       0.1377      1.00000
     30       0.1377      1.00000
     31       0.6297      1.00000
     32       0.6297      1.00000
     33       0.7498      1.00000
     34       0.7498      1.00000
     35       1.0434      1.00000
     36       1.0434      1.00000
     37       1.7461      1.00000
     38       1.7461      1.00000
     39       2.6112      1.00000
     40       2.6112      1.00000
     41       5.0162      0.00000
     42       5.0162      0.00000
     43       6.3491      0.00000
     44       6.3491      0.00000
     45       7.0395      0.00000
     46       7.0395      0.00000
     47       7.2123      0.00000
     48       7.2123      0.00000
     49       7.6349      0.00000
     50       7.6349      0.00000
     51       7.7674      0.00000
     52       7.7674      0.00000
     53      11.1349      0.00000
     54      11.1349      0.00000
     55      11.3141      0.00000
     56      11.3141      0.00000

 k-point  17 :       0.0000    0.2500    0.5000
  band No.  band energies     occupation 
      1     -15.0086      1.00000
      2     -14.9617      1.00000
      3     -14.5394      1.00000
      4     -14.4975      1.00000
      5     -14.0632      1.00000
      6     -14.0299      1.00000
      7     -13.8887      1.00000
      8     -13.8416      1.00000
      9      -3.4691      1.00000
     10      -3.3151      1.00000
     11      -2.2927      1.00000
     12      -2.2249      1.00000
     13      -2.1033      1.00000
     14      -1.9449      1.00000
     15      -1.5038      1.00000
     16      -1.4405      1.00000
     17      -1.3871      1.00000
     18      -0.7000      1.00000
     19      -0.6886      1.00000
     20      -0.5917      1.00000
     21      -0.5200      1.00000
     22      -0.3943      1.00000
     23      -0.1654      1.00000
     24      -0.1351      1.00000
     25      -0.0309      1.00000
     26       0.2466      1.00000
     27       0.4313      1.00000
     28       0.5333      1.00000
     29       0.8686      1.00000
     30       1.0227      1.00000
     31       1.3222      1.00000
     32       1.3318      1.00000
     33       1.4461      1.00000
     34       1.6899      1.00000
     35       1.7804      1.00000
     36       1.7982      1.00000
     37       1.7998      1.00000
     38       2.2176      1.00000
     39       2.5220      1.00000
     40       2.6356      1.00000
     41       5.3647      0.00000
     42       5.4768      0.00000
     43       6.0360      0.00000
     44       6.1898      0.00000
     45       6.9476      0.00000
     46       6.9720      0.00000
     47       7.2163      0.00000
     48       7.2273      0.00000
     49       7.3810      0.00000
     50       7.5810      0.00000
     51       7.7072      0.00000
     52       7.7826      0.00000
     53       9.0821      0.00000
     54       9.6426      0.00000
     55      10.8823      0.00000
     56      11.0955      0.00000

 k-point  18 :       0.1667    0.2500    0.5000
  band No.  band energies     occupation 
      1     -14.7972      1.00000
      2     -14.7648      1.00000
      3     -14.3716      1.00000
      4     -14.3528      1.00000
      5     -14.0337      1.00000
      6     -14.0068      1.00000
      7     -13.8800      1.00000
      8     -13.8441      1.00000
      9      -3.0598      1.00000
     10      -2.9159      1.00000
     11      -2.2018      1.00000
     12      -2.0843      1.00000
     13      -1.9866      1.00000
     14      -1.9144      1.00000
     15      -1.7541      1.00000
     16      -1.5728      1.00000
     17      -1.4776      1.00000
     18      -1.2689      1.00000
     19      -1.1125      1.00000
     20      -0.8360      1.00000
     21      -0.5974      1.00000
     22      -0.5106      1.00000
     23      -0.3548      1.00000
     24       0.0400      1.00000
     25       0.1191      1.00000
     26       0.2558      1.00000
     27       0.2977      1.00000
     28       0.6663      1.00000
     29       0.6990      1.00000
     30       0.7711      1.00000
     31       0.9798      1.00000
     32       1.0868      1.00000
     33       1.3454      1.00000
     34       1.5059      1.00000
     35       1.5992      1.00000
     36       1.7487      1.00000
     37       1.8740      1.00000
     38       2.1293      1.00000
     39       2.4417      1.00000
     40       2.6247      1.00000
     41       4.7980      0.00000
     42       4.9331      0.00000
     43       6.4408      0.00000
     44       6.5898      0.00000
     45       6.8786      0.00000
     46       6.9045      0.00000
     47       7.0531      0.00000
     48       7.2439      0.00000
     49       7.2622      0.00000
     50       7.3559      0.00000
     51       7.4230      0.00000
     52       7.6570      0.00000
     53       9.7581      0.00000
     54      10.3022      0.00000
     55      11.4509      0.00000
     56      11.6920      0.00000

 k-point  19 :       0.3333    0.2500    0.5000
  band No.  band energies     occupation 
      1     -14.3243      1.00000
      2     -14.3176      1.00000
      3     -14.0750      1.00000
      4     -14.0456      1.00000
      5     -13.9730      1.00000
      6     -13.9441      1.00000
      7     -13.8742      1.00000
      8     -13.8392      1.00000
      9      -2.6718      1.00000
     10      -2.4749      1.00000
     11      -2.4274      1.00000
     12      -2.2209      1.00000
     13      -1.9211      1.00000
     14      -1.8929      1.00000
     15      -1.7347      1.00000
     16      -1.5341      1.00000
     17      -1.4633      1.00000
     18      -1.3788      1.00000
     19      -1.2492      1.00000
     20      -1.1013      1.00000
     21      -1.0443      1.00000
     22      -0.8367      1.00000
     23      -0.7275      1.00000
     24      -0.4482      1.00000
     25      -0.0406      1.00000
     26       0.1286      1.00000
     27       0.2760      1.00000
     28       0.4288      1.00000
     29       0.4790      1.00000
     30       0.6912      1.00000
     31       0.8003      1.00000
     32       0.8411      1.00000
     33       0.9742      1.00000
     34       1.0801      1.00000
     35       1.3836      1.00000
     36       1.4877      1.00000
     37       1.7104      1.00000
     38       1.9088      1.00000
     39       2.4090      1.00000
     40       2.6043      1.00000
     41       4.5792      0.00000
     42       4.8937      0.00000
     43       6.4601      0.00000
     44       6.5735      0.00000
     45       6.9564      0.00000
     46       6.9960      0.00000
     47       7.1524      0.00000
     48       7.1577      0.00000
     49       7.2818      0.00000
     50       7.4842      0.00000
     51       7.5402      0.00000
     52       7.6626      0.00000
     53      10.7295      0.00000
     54      11.1265      0.00000
     55      11.7814      0.00000
     56      11.9755      0.00000

 k-point  20 :       0.5000    0.2500    0.5000
  band No.  band energies     occupation 
      1     -14.0307      1.00000
      2     -14.0307      1.00000
      3     -13.9904      1.00000
      4     -13.9904      1.00000
      5     -13.8879      1.00000
      6     -13.8879      1.00000
      7     -13.8427      1.00000
      8     -13.8427      1.00000
      9      -3.0613      1.00000
     10      -3.0613      1.00000
     11      -2.5812      1.00000
     12      -2.5812      1.00000
     13      -1.7840      1.00000
     14      -1.7840      1.00000
     15      -1.3767      1.00000
     16      -1.3767      1.00000
     17      -1.1839      1.00000
     18      -1.1839      1.00000
     19      -0.8992      1.00000
     20      -0.8992      1.00000
     21      -0.7822      1.00000
     22      -0.7822      1.00000
     23      -0.6162      1.00000
     24      -0.6162      1.00000
     25      -0.1234      1.00000
     26      -0.1234      1.00000
     27       0.0395      1.00000
     28       0.0395      1.00000
     29       0.1756      1.00000
     30       0.1756      1.00000
     31       0.7142      1.00000
     32       0.7142      1.00000
     33       0.8364      1.00000
     34       0.8364      1.00000
     35       1.2122      1.00000
     36       1.2122      1.00000
     37       1.7329      1.00000
     38       1.7329      1.00000
     39       2.5599      1.00000
     40       2.5599      1.00000
     41       4.9942      0.00000
     42       4.9942      0.00000
     43       6.3112      0.00000
     44       6.3112      0.00000
     45       6.9841      0.00000
     46       6.9841      0.00000
     47       7.2227      0.00000
     48       7.2227      0.00000
     49       7.6417      0.00000
     50       7.6417      0.00000
     51       7.7718      0.00000
     52       7.7718      0.00000
     53      11.2967      0.00000
     54      11.2967      0.00000
     55      11.4840      0.00000
     56      11.4840      0.00000

 k-point  21 :       0.0000    0.5000    0.5000
  band No.  band energies     occupation 
      1     -14.9002      1.00000
      2     -14.8353      1.00000
      3     -14.6569      1.00000
      4     -14.5909      1.00000
      5     -14.0939      1.00000
      6     -14.0426      1.00000
      7     -13.8911      1.00000
      8     -13.8512      1.00000
      9      -3.4980      1.00000
     10      -3.2556      1.00000
     11      -2.3418      1.00000
     12      -2.2207      1.00000
     13      -2.0741      1.00000
     14      -1.7785      1.00000
     15      -1.5537      1.00000
     16      -1.4634      1.00000
     17      -1.3898      1.00000
     18      -0.6994      1.00000
     19      -0.6154      1.00000
     20      -0.6054      1.00000
     21      -0.5466      1.00000
     22      -0.2408      1.00000
     23      -0.2208      1.00000
     24      -0.1192      1.00000
     25      -0.0673      1.00000
     26       0.1786      1.00000
     27       0.3319      1.00000
     28       0.3344      1.00000
[...]
     42       4.9636      0.00000
     43       6.2690      0.00000
     44       6.2690      0.00000
     45       6.9252      0.00000
     46       6.9252      0.00000
     47       7.2299      0.00000
     48       7.2299      0.00000
     49       7.6827      0.00000
     50       7.6827      0.00000
     51       7.7351      0.00000
     52       7.7351      0.00000
     53      11.7643      0.00000
     54      11.7643      0.00000
     55      11.8378      0.00000
     56      11.8378      0.00000


--------------------------------------------------------------------------------------------------------


 soft charge-density along one line, spin component           1
         0         1         2         3         4         5         6         7         8         9
 total charge-density along one line
 
 soft charge-density along one line, spin component           2
         0         1         2         3         4         5         6         7         8         9
 total charge-density along one line
 
 pseudopotential strength for first ion, spin component:           1
 -9.374  -0.800   0.000  -0.000  -0.000  -9.919  -0.822   0.000
 -0.800  -8.742  -0.000  -0.000   0.000  -0.822  -9.268  -0.000
  0.000  -0.000  -9.993   0.058  -0.084   0.000  -0.000 -10.551
 -0.000  -0.000   0.058  -9.937   0.094  -0.000  -0.000   0.057
 -0.000   0.000  -0.084   0.094  -9.988  -0.000   0.000  -0.083
 -9.919  -0.822   0.000  -0.000  -0.000 -10.446  -0.851   0.000
 -0.822  -9.268  -0.000  -0.000   0.000  -0.851  -9.774  -0.000
  0.000  -0.000 -10.551   0.057  -0.083   0.000  -0.000 -11.097
 -0.000  -0.000   0.057 -10.498   0.092  -0.000  -0.000   0.056
 -0.000   0.000  -0.083   0.092 -10.547  -0.000   0.000  -0.082
  0.000   0.000   0.001  -0.014  -0.009   0.000   0.000   0.000
  0.000   0.000   0.001  -0.027  -0.017   0.000   0.000   0.001
 -0.005  -0.004   0.000  -0.000  -0.000  -0.005  -0.004  -0.000
 -0.000   0.000  -0.004  -0.005   0.001  -0.000  -0.000  -0.004
  0.000  -0.000   0.002  -0.003  -0.005  -0.000  -0.000   0.002
 -0.006  -0.005  -0.000  -0.000  -0.000  -0.005  -0.005  -0.000
 -0.000  -0.000  -0.004  -0.005   0.001  -0.000  -0.000  -0.004
  0.000  -0.000   0.003  -0.002  -0.005  -0.000  -0.000   0.003
 pseudopotential strength for first ion, spin component:           2
 -4.776   0.665   0.000  -0.000  -0.000  -5.292   0.671   0.000
  0.665  -5.313  -0.000  -0.000   0.000   0.671  -5.835  -0.000
  0.000  -0.000  -4.402   0.029  -0.080   0.000  -0.000  -4.914
 -0.000  -0.000   0.029  -4.467  -0.034  -0.000  -0.000   0.028
 -0.000   0.000  -0.080  -0.034  -4.478  -0.000   0.000  -0.080
 -5.292   0.671   0.000  -0.000  -0.000  -5.775   0.679   0.000
  0.671  -5.835  -0.000  -0.000   0.000   0.679  -6.324  -0.000
  0.000  -0.000  -4.914   0.028  -0.080   0.000  -0.000  -5.390
 -0.000  -0.000   0.028  -4.983  -0.038  -0.000  -0.000   0.027
 -0.000   0.000  -0.080  -0.038  -4.993  -0.000   0.000  -0.080
  0.000   0.000   0.003  -0.068  -0.049   0.000   0.000   0.003
  0.000   0.000   0.005  -0.133  -0.098   0.000   0.000   0.005
  0.002   0.002  -0.000  -0.000  -0.000   0.002   0.002  -0.000
 -0.000   0.000   0.001  -0.004  -0.004  -0.000   0.000   0.001
 -0.000  -0.000  -0.002  -0.006  -0.003   0.000  -0.000  -0.002
  0.002   0.002   0.000  -0.000  -0.000   0.002   0.002  -0.000
 -0.000   0.000   0.001  -0.004  -0.004  -0.000   0.000   0.001
  0.000  -0.000  -0.002  -0.007  -0.003  -0.000  -0.000  -0.002
 total augmentation occupancy for first ion, spin component:           1
  1.200   0.000   0.000   0.000   0.000   0.000   0.000   0.000   0.000   0.000   0.000   0.000   0.000   0.000   0.000   0.000
  0.000   1.200   0.000   0.000   0.000   0.000   0.000   0.000   0.000   0.000   0.000   0.000   0.000   0.000   0.000   0.000
  0.000   0.000   1.200   0.000   0.000   0.000   0.000   0.000   0.000   0.000   0.000   0.000   0.000   0.000   0.000   0.000
  0.000   0.000   0.000   1.200   0.000   0.000   0.000   0.000   0.000   0.000   0.000   0.000   0.000   0.000   0.000   0.000
  0.000   0.000   0.000   0.000   1.200   0.000   0.000   0.000   0.000   0.000   0.000   0.000   0.000   0.000   0.000   0.000
  0.000   0.000   0.000   0.000   0.000   0.000   0.000   0.000   0.000   0.000   0.000   0.000   0.000   0.000   0.000   0.000
  0.000   0.000   0.000   0.000   0.000   0.000   0.000   0.000   0.000   0.000   0.000   0.000   0.000   0.000   0.000   0.000
  0.000   0.000   0.000   0.000   0.000   0.000   0.000   0.000   0.000   0.000   0.000   0.000   0.000   0.000   0.000   0.000
  0.000   0.000   0.000   0.000   0.000   0.000   0.000   0.000   0.000   0.000   0.000   0.000   0.000   0.000   0.000   0.000
  0.000   0.000   0.000   0.000   0.000   0.000   0.000   0.000   0.000   0.000   0.000   0.000   0.000   0.000   0.000   0.000
  0.000   0.000   0.000   0.000   0.000   0.000   0.000   0.000   0.000   0.000   1.000   0.000   0.000   0.000   0.000   0.000
  0.000   0.000   0.000   0.000   0.000   0.000   0.000   0.000   0.000   0.000   0.000   0.000   0.000   0.000   0.000   0.000
  0.000   0.000   0.000   0.000   0.000   0.000   0.000   0.000   0.000   0.000   0.000   0.000   0.000   0.000   0.000   0.000
  0.000   0.000   0.000   0.000   0.000   0.000   0.000   0.000   0.000   0.000   0.000   0.000   0.000   0.000   0.000   0.000
  0.000   0.000   0.000   0.000   0.000   0.000   0.000   0.000   0.000   0.000   0.000   0.000   0.000   0.000   0.000   0.000
  0.000   0.000   0.000   0.000   0.000   0.000   0.000   0.000   0.000   0.000   0.000   0.000   0.000   0.000   0.000   0.000
  0.000   0.000   0.000   0.000   0.000   0.000   0.000   0.000   0.000   0.000   0.000   0.000   0.000   0.000   0.000   0.000
  0.000   0.000   0.000   0.000   0.000   0.000   0.000   0.000   0.000   0.000   0.000   0.000   0.000   0.000   0.000   0.000
 total augmentation occupancy for first ion, spin component:           2
  0.514   0.000   0.000   0.000   0.000   0.000   0.000   0.000   0.000   0.000   0.000   0.000   0.000   0.000   0.000   0.000
  0.000   0.514   0.000   0.000   0.000   0.000   0.000   0.000   0.000   0.000   0.000   0.000   0.000   0.000   0.000   0.000
  0.000   0.000   0.514   0.000   0.000   0.000   0.000   0.000   0.000   0.000   0.000   0.000   0.000   0.000   0.000   0.000
  0.000   0.000   0.000   0.514   0.000   0.000   0.000   0.000   0.000   0.000   0.000   0.000   0.000   0.000   0.000   0.000
  0.000   0.000   0.000   0.000   0.514   0.000   0.000   0.000   0.000   0.000   0.000   0.000   0.000   0.000   0.000   0.000
  0.000   0.000   0.000   0.000   0.000   0.000   0.000   0.000   0.000   0.000   0.000   0.000   0.000   0.000   0.000   0.000
  0.000   0.000   0.000   0.000   0.000   0.000   0.000   0.000   0.000   0.000   0.000   0.000   0.000   0.000   0.000   0.000
  0.000   0.000   0.000   0.000   0.000   0.000   0.000   0.000   0.000   0.000   0.000   0.000   0.000   0.000   0.000   0.000
  0.000   0.000   0.000   0.000   0.000   0.000   0.000   0.000   0.000   0.000   0.000   0.000   0.000   0.000   0.000   0.000
  0.000   0.000   0.000   0.000   0.000   0.000   0.000   0.000   0.000   0.000   0.000   0.000   0.000   0.000   0.000   0.000
  0.000   0.000   0.000   0.000   0.000   0.000   0.000   0.000   0.000   0.000   0.429   0.000   0.000   0.000   0.000   0.000
  0.000   0.000   0.000   0.000   0.000   0.000   0.000   0.000   0.000   0.000   0.000   0.000   0.000   0.000   0.000   0.000
  0.000   0.000   0.000   0.000   0.000   0.000   0.000   0.000   0.000   0.000   0.000   0.000   0.000   0.000   0.000   0.000
  0.000   0.000   0.000   0.000   0.000   0.000   0.000   0.000   0.000   0.000   0.000   0.000   0.000   0.000   0.000   0.000
  0.000   0.000   0.000   0.000   0.000   0.000   0.000   0.000   0.000   0.000   0.000   0.000   0.000   0.000   0.000   0.000
  0.000   0.000   0.000   0.000   0.000   0.000   0.000   0.000   0.000   0.000   0.000   0.000   0.000   0.000   0.000   0.000
  0.000   0.000   0.000   0.000   0.000   0.000   0.000   0.000   0.000   0.000   0.000   0.000   0.000   0.000   0.000   0.000
  0.000   0.000   0.000   0.000   0.000   0.000   0.000   0.000   0.000   0.000   0.000   0.000   0.000   0.000   0.000   0.000


------------------------ aborting loop because EDIFF is reached ----------------------------------------


 


 total charge     
 
# of ion     s       p       d       tot
----------------------------------------
  1        0.305   0.415   4.839   5.559
  2        0.305   0.415   4.839   5.559
  3        0.305   0.415   4.839   5.559
  4        0.305   0.415   4.839   5.559
  5        1.557   3.462   0.000   5.019
  6        1.557   3.462   0.000   5.019
  7        1.557   3.462   0.000   5.019
  8        1.557   3.462   0.000   5.019
  9        1.557   3.464   0.000   5.020
 10        1.557   3.464   0.000   5.020
 11        1.557   3.464   0.000   5.020
 12        1.557   3.464   0.000   5.020
 13        0.088   0.180   0.000   0.268
 14        0.088   0.180   0.000   0.268
 15        0.088   0.180   0.000   0.268
 16        0.088   0.180   0.000   0.268
------------------------------------------------
tot       14.025  30.084  19.354  63.463
 


 magnetization (x)
 
# of ion     s       p       d       tot
----------------------------------------
  1        0.038   0.027   3.762   3.827
  2       -0.038  -0.027  -3.762  -3.827
  3        0.038   0.027   3.762   3.827
  4       -0.038  -0.027  -3.762  -3.827
  5        0.006   0.051   0.000   0.058
  6       -0.006  -0.051   0.000  -0.058
  7        0.006   0.051   0.000   0.058
  8       -0.006  -0.051   0.000  -0.058
  9       -0.003   0.004   0.000   0.001
 10        0.003  -0.004   0.000  -0.001
 11       -0.003   0.004   0.000   0.001
 12        0.003  -0.004   0.000  -0.001
 13        0.000   0.001   0.000   0.002
 14       -0.000  -0.001   0.000  -0.002
 15        0.000   0.001   0.000   0.002
 16       -0.000  -0.001   0.000  -0.002
------------------------------------------------
tot        0.000   0.000  -0.000   0.000
 
    CHARGE:  cpu time    0.09: real time    0.09
    FORLOC:  cpu time    0.00: real time    0.00
    FORNL :  cpu time    0.72: real time    0.72
    STRESS:  cpu time    0.97: real time    0.97
    FORCOR:  cpu time    0.02: real time    0.02
    FORHAR:  cpu time    0.00: real time    0.00

  FORCE on cell =-STRESS in cart. coord.  units (eV):
  Direction    XX          YY          ZZ          XY          YZ          ZX
  --------------------------------------------------------------------------------------
  Alpha Z   265.70341   265.70341   265.70341
  Ewald   -1636.15261  -795.53527 -1624.50881    -0.00000     0.00000     0.00000
  Hartree   399.02289   817.89059   271.54119    -0.00000    -0.00000    -0.00000
  E(xc)    -386.80143  -387.20512  -387.13507     0.00000    -0.00000    -0.00000
  Local      89.58733 -1125.17594   232.16383     0.00000     0.00000     0.00000
  n-local  -272.17270  -254.69658  -262.64031    -0.00001     0.10557     0.00002
  augment   182.74365   174.14369   178.05191    -0.00000     0.00000    -0.00000
  Kinetic  1357.53448  1304.57101  1326.48376     0.00006    -0.36474    -0.00008
  Fock        0.00000     0.00000     0.00000     0.00000     0.00000     0.00000
  -------------------------------------------------------------------------------------
  Total      -0.53497    -0.30422    -0.34009     0.00000     0.00000     0.00000
  in kB      -5.56848    -3.16667    -3.53994     0.00000     0.00000     0.00000
  external pressure =       -4.09 kB  Pullay stress =        0.00 kB


 VOLUME and BASIS-vectors are now :
 -----------------------------------------------------------------------------
  energy-cutoff  :      520.00
  volume of cell :      153.92
      direct lattice vectors                 reciprocal lattice vectors
     0.000000000  2.835984957  0.000000000     0.000000000  0.352611179  0.000000000
     0.000000000  0.000000000  5.139416860     0.000000000  0.000000000  0.194574604
    10.560504705  0.000000000  0.000000000     0.094692444  0.000000000  0.000000000

  length of vectors
     2.835984957  5.139416860 10.560504705     0.352611179  0.194574604  0.094692444


 FORCES acting on ions
    electron-ion (+dipol)            ewald-force                    non-local-force                 convergence-correction
 -----------------------------------------------------------------------------------------------
   -.146E+02 0.253E-13 -.498E+01   0.146E+02 -.138E-13 0.525E+01   -.257E+00 -.151E-17 -.344E+00   0.127E+00 -.221E-16 0.434E-01
   -.146E+02 0.134E-13 0.498E+01   0.146E+02 0.216E-13 -.525E+01   -.257E+00 -.170E-17 0.344E+00   0.127E+00 0.111E-12 -.434E-01
   0.146E+02 0.479E-13 0.498E+01   -.146E+02 0.273E-13 -.525E+01   0.257E+00 -.173E-17 0.344E+00   -.127E+00 -.240E-11 -.434E-01
   0.146E+02 0.622E-13 -.498E+01   -.146E+02 -.252E-13 0.525E+01   0.257E+00 -.144E-17 -.344E+00   -.127E+00 0.749E-13 0.434E-01
   0.211E+02 0.919E-14 0.847E+02   -.261E+02 0.151E-13 -.950E+02   0.502E+01 -.159E-17 0.103E+02   -.380E-01 0.458E-13 0.201E-01
   0.211E+02 0.841E-14 -.847E+02   -.261E+02 0.230E-15 0.950E+02   0.502E+01 0.173E-17 -.103E+02   -.380E-01 0.239E-12 -.201E-01
   -.211E+02 0.116E-12 -.847E+02   0.261E+02 -.163E-13 0.950E+02   -.502E+01 0.200E-17 -.103E+02   0.380E-01 0.670E-13 -.201E-01
   -.211E+02 0.104E-12 0.847E+02   0.261E+02 -.844E-14 -.950E+02   -.502E+01 0.180E-17 0.103E+02   0.380E-01 -.148E-12 0.201E-01
   -.611E+02 -.134E-13 -.150E+03   0.692E+02 0.807E-14 0.160E+03   -.803E+01 0.117E-17 -.988E+01   -.885E-01 -.679E-13 0.317E-01
   -.611E+02 -.143E-13 0.150E+03   0.692E+02 -.168E-13 -.160E+03   -.803E+01 0.996E-19 0.988E+01   -.885E-01 0.455E-12 -.317E-01
   0.611E+02 0.896E-13 0.150E+03   -.692E+02 -.164E-13 -.160E+03   0.803E+01 -.130E-17 0.988E+01   0.885E-01 -.571E-13 -.317E-01
   0.611E+02 0.865E-13 -.150E+03   -.692E+02 0.159E-13 0.160E+03   0.803E+01 -.132E-18 -.988E+01   0.885E-01 0.860E-13 0.317E-01
   0.402E+01 0.545E-15 0.134E+01   -.453E+01 -.527E-15 -.125E+01   0.507E+00 0.638E-19 -.698E-01   0.315E-02 -.271E-15 -.639E-03
   0.402E+01 -.152E-15 -.134E+01   -.453E+01 0.475E-15 0.125E+01   0.507E+00 -.157E-19 0.698E-01   0.315E-02 0.316E-15 0.639E-03
   -.402E+01 0.163E-14 -.134E+01   0.453E+01 -.763E-15 0.125E+01   -.507E+00 0.175E-18 0.698E-01   -.315E-02 -.837E-15 0.639E-03
   -.402E+01 -.863E-15 0.134E+01   0.453E+01 0.469E-15 -.125E+01   -.507E+00 0.781E-20 -.698E-01   -.315E-02 0.587E-16 -.639E-03
 -----------------------------------------------------------------------------------------------
   0.158E-11 0.536E-12 0.684E-11   -.178E-14 -.901E-14 -.675E-13   -.222E-15 -.237E-17 -.139E-16   0.470E-11 -.160E-11 -.271E-11
 
 
 POSITION                                       TOTAL-FORCE (eV/Angst)
 -----------------------------------------------------------------------------------
      1.43096      0.70900      0.25029        -0.052204     -0.000000     -0.031829
      6.71121      0.70900      2.31942        -0.052204      0.000000      0.031829
      9.12955      2.12699      4.88913         0.052204      0.000000      0.031829
      3.84930      2.12699      2.81999         0.052204     -0.000000     -0.031829
      3.18281      0.70900      1.66945        -0.003726     -0.000000      0.005333
      8.46306      0.70900      0.90026        -0.003726     -0.000000     -0.005333
      7.37769      2.12699      3.46997         0.003726     -0.000000     -0.005333
      2.09744      2.12699      4.23916         0.003726      0.000000      0.005333
      4.69175      0.70900      3.86685        -0.003005      0.000000      0.005254
      9.97200      0.70900      3.84228        -0.003005     -0.000000     -0.005254
      5.86876      2.12699      1.27257         0.003005      0.000000     -0.005254
      0.58851      2.12699      1.29714         0.003005     -0.000000      0.005254
      1.14608      0.70900      2.80691        -0.003804      0.000000      0.017140
      6.42633      0.70900      4.90221        -0.003804      0.000000     -0.017140
      9.41443      2.12699      2.33250         0.003804      0.000000     -0.017140
      4.13418      2.12699      0.23720         0.003804      0.000000      0.017140
 -----------------------------------------------------------------------------------
    total drift:                                0.000000     -0.000000      0.000000


--------------------------------------------------------------------------------------------------------



  FREE ENERGIE OF THE ION-ELECTRON SYSTEM (eV)
  ---------------------------------------------------
  free  energy   TOTEN  =      -104.56113608 eV

  energy  without entropy=     -104.56113608  energy(sigma->0) =     -104.56113608
 


--------------------------------------------------------------------------------------------------------


    POTLOK:  cpu time    0.03: real time    0.03


--------------------------------------------------------------------------------------------------------


 writing wavefunctions
     LOOP+:  cpu time   10.31: real time   16.87
    4ORBIT:  cpu time    0.00: real time    0.00
 


 total charge     
 
# of ion     s       p       d       tot
----------------------------------------
  1        0.305   0.415   4.839   5.559
  2        0.305   0.415   4.839   5.559
  3        0.305   0.415   4.839   5.559
  4        0.305   0.415   4.839   5.559
  5        1.557   3.462   0.000   5.019
  6        1.557   3.462   0.000   5.019
  7        1.557   3.462   0.000   5.019
  8        1.557   3.462   0.000   5.019
  9        1.557   3.464   0.000   5.020
 10        1.557   3.464   0.000   5.020
 11        1.557   3.464   0.000   5.020
 12        1.557   3.464   0.000   5.020
 13        0.088   0.180   0.000   0.268
 14        0.088   0.180   0.000   0.268
 15        0.088   0.180   0.000   0.268
 16        0.088   0.180   0.000   0.268
------------------------------------------------
tot       14.025  30.084  19.354  63.463
 


 magnetization (x)
 
# of ion     s       p       d       tot
----------------------------------------
  1        0.038   0.027   3.762   3.827
  2       -0.038  -0.027  -3.762  -3.827
  3        0.038   0.027   3.762   3.827
  4       -0.038  -0.027  -3.762  -3.827
  5        0.006   0.051   0.000   0.058
  6       -0.006  -0.051   0.000  -0.058
  7        0.006   0.051   0.000   0.058
  8       -0.006  -0.051   0.000  -0.058
  9       -0.003   0.004   0.000   0.001
 10        0.003  -0.004   0.000  -0.001
 11       -0.003   0.004   0.000   0.001
 12        0.003  -0.004   0.000  -0.001
 13        0.000   0.001   0.000   0.002
 14       -0.000  -0.001   0.000  -0.002
 15        0.000   0.001   0.000   0.002
 16       -0.000  -0.001   0.000  -0.002
------------------------------------------------
tot        0.000   0.000  -0.000   0.000
 
 BZINTS: Fermi energy:  2.936912; 80.000000 electrons
         Band energy:-237.857343;  BLOECHL correction:  0.000000

 total amount of memory used by VASP on root node    67716. kBytes
========================================================================

   base      :      30000. kBytes
   nonl-proj :      22352. kBytes
   fftplans  :        930. kBytes
   grid      :       2445. kBytes
   one-center:        248. kBytes
   wavefun   :      11741. kBytes
 
  
  
 General timing and accounting informations for this job:
 ========================================================
  
                  Total CPU time used (sec):       12.361
                            User time (sec):       12.015
                          System time (sec):        0.346
                         Elapsed time (sec):       21.995
  
                   Maximum memory used (kb):      136876.
                   Average memory used (kb):           0.
  
                          Minor page faults:        16574
                          Major page faults:            0
                 Voluntary context switches:         1528
