 vasp.5.3.3 18Dez12 (build May 12 2016 12:04:25) complex                        
  
 executed on             LinuxIFC date 2019.05.20  21:45:09
 running on   80 total cores
 distrk:  each k-point on   80 cores,    1 groups
 distr:  one band on NCORES_PER_BAND=  10 cores,    8 groups


--------------------------------------------------------------------------------------------------------


 INCAR:
 POTCAR:    PAW_PBE O 08Apr2002                   
 POTCAR:    PAW_PBE Mn 06Sep2000                  
 POTCAR:    PAW_PBE O 08Apr2002                   
  local pseudopotential read in
  partial core-charges read in
  partial kinetic energy density read in
  kinetic energy density of atom read in
  atomic valenz-charges read in
  non local Contribution for L=           0  read in
    real space projection operators read in
  non local Contribution for L=           0  read in
    real space projection operators read in
  non local Contribution for L=           1  read in
    real space projection operators read in
  non local Contribution for L=           1  read in
    real space projection operators read in
    PAW grid and wavefunctions read in
 
   number of l-projection  operators is LMAX  =           4
   number of lm-projection operators is LMMAX =           8
 
 POTCAR:    PAW_PBE Mn 06Sep2000                  
  local pseudopotential read in
  partial core-charges read in
  partial kinetic energy density read in
  atomic valenz-charges read in
  non local Contribution for L=           2  read in
    real space projection operators read in
  non local Contribution for L=           2  read in
    real space projection operators read in
  non local Contribution for L=           0  read in
    real space projection operators read in
  non local Contribution for L=           0  read in
    real space projection operators read in
  non local Contribution for L=           1  read in
    real space projection operators read in
  non local Contribution for L=           1  read in
    real space projection operators read in
    PAW grid and wavefunctions read in
 
   number of l-projection  operators is LMAX  =           6
   number of lm-projection operators is LMMAX =          18
 

 ----------------------------------------------------------------------------- 
|                                                                             |
|  ADVICE TO THIS USER RUNNING 'VASP/VAMP'   (HEAR YOUR MASTER'S VOICE ...):  |
|                                                                             |
|      You have a (more or less) 'large supercell' and for larger cells       |
|      it might be more efficient to use real space projection opertators     |
|      So try LREAL= Auto  in the INCAR   file.                               |
|      Mind: At the moment your POTCAR file does not contain real space       |
|       projectors, and has to be modified,  BUT if you                       |
|      want to do an extremely  accurate calculation you might also keep the  |
|      reciprocal projection scheme          (i.e. LREAL=.FALSE.)             |
|                                                                             |
 ----------------------------------------------------------------------------- 


 ----------------------------------------------------------------------------- 
|                                                                             |
|  ADVICE TO THIS USER RUNNING 'VASP/VAMP'   (HEAR YOUR MASTER'S VOICE ...):  |
|                                                                             |
|      You enforced a specific xc-type in the INCAR file,                     |
|      a different type was found on the POTCAR file                          |
|          I HOPE YOU KNOW, WHAT YOU ARE  DOING                               |
|                                                                             |
 ----------------------------------------------------------------------------- 

  PAW_PBE O 08Apr2002                   :
 energy of atom  1       EATOM= -432.3788
 kinetic energy error for atom=    0.0208 (will be added to EATOM!!)
  PAW_PBE Mn 06Sep2000                  :
 energy of atom  2       EATOM= -416.7541
 kinetic energy error for atom=    0.0024 (will be added to EATOM!!)
 
 
 POSCAR: (Mn O2)12  (P1) ~ POSCAR_5_P1 1 1 0  sur
  positions in direct lattice
  velocities in cartesian coordinates
 exchange correlation table for  LEXCH =       14
   RHO(1)=    0.500       N(1)  =     2000
   RHO(2)=  100.500       N(2)  =     4000
 


--------------------------------------------------------------------------------------------------------


 ion  position               nearest neighbor table
   1  0.000  0.500  0.241-  25 1.87  25 1.87  28 1.88
   2  0.000  0.500  0.457-  26 1.87  26 1.87  29 1.88
   3  0.000  0.500  0.673-  30 1.86  27 1.89  27 1.89
   4  0.500  0.303  0.175-  28 1.87  28 1.87  31 1.88
   5  0.500  0.697  0.175-  28 1.87  28 1.87  31 1.88
   6  0.500  0.303  0.392-  29 1.87  29 1.87  32 1.88
   7  0.500  0.697  0.392-  29 1.87  29 1.87  32 1.88
   8  0.500  0.304  0.608-  30 1.87  30 1.87  33 1.88
   9  0.500  0.696  0.608-  30 1.87  30 1.87  33 1.88
  10  0.000  0.500  0.326-  25 1.87  25 1.87  29 1.88
  11  0.000  0.500  0.543-  26 1.87  26 1.87  30 1.88
  12  0.000  0.500  0.757-  27 1.81  27 1.81
  13  0.000  0.000  0.349-  32 1.87  32 1.87  34 1.88
  14  0.000  0.000  0.565-  35 1.85  33 1.90  33 1.90
  15  0.000  0.000  0.780-  36 1.57
  16  0.500  0.803  0.283-  34 1.87  34 1.87  25 1.88
  17  0.500  0.197  0.283-  34 1.87  34 1.87  25 1.88
  18  0.500  0.803  0.500-  35 1.87  35 1.87  26 1.88
  19  0.500  0.197  0.500-  35 1.87  35 1.87  26 1.88
  20  0.500  0.809  0.715-  36 1.87  36 1.87  27 1.92
  21  0.500  0.191  0.715-  36 1.87  36 1.87  27 1.92
  22  0.000  0.000  0.218-  31 1.87  31 1.87  34 1.88
  23  0.000  0.000  0.434-  32 1.87  32 1.87  35 1.90
  24  0.000  0.000  0.650-  33 1.84  33 1.84  36 2.15
  25  0.500  0.500  0.283-   1 1.87  10 1.87   1 1.87  10 1.87  16 1.88  17 1.88
  26  0.500  0.500  0.500-   2 1.87   2 1.87  11 1.87  11 1.87  18 1.88  19 1.88
  27  0.500  0.500  0.717-  12 1.81  12 1.81   3 1.89   3 1.89  20 1.92  21 1.92
  28  0.000  0.500  0.175-   4 1.87   5 1.87   4 1.87   5 1.87   1 1.88
  29  0.000  0.500  0.392-   6 1.87   7 1.87   6 1.87   7 1.87  10 1.88   2 1.88
  30  0.000  0.500  0.608-   3 1.86   8 1.87   9 1.87   8 1.87   9 1.87  11 1.88
  31  0.500  0.000  0.175-  22 1.87  22 1.87   4 1.88   5 1.88
  32  0.500  0.000  0.392-  13 1.87  13 1.87  23 1.87  23 1.87   6 1.88   7 1.88
  33  0.500  0.000  0.609-  24 1.84  24 1.84   8 1.88   9 1.88  14 1.90  14 1.90
  34  0.000  0.000  0.283-  16 1.87  17 1.87  16 1.87  17 1.87  13 1.88  22 1.88
  35  0.000  0.000  0.501-  14 1.85  18 1.87  19 1.87  18 1.87  19 1.87  23 1.90
  36  0.000  0.000  0.725-  15 1.57  20 1.87  21 1.87  20 1.87  21 1.87  24 2.15
 
  LATTYP: Found a simple orthorhombic cell.
 ALAT       =     2.8411100000
 B/A-ratio  =     2.1794017127
 C/A-ratio  =    10.0579562213
  
  Lattice vectors:
  
 A1 = (   2.8411100000,   0.0000000000,   0.0000000000)
 A2 = (   0.0000000000,   6.1919200000,   0.0000000000)
 A3 = (   0.0000000000,   0.0000000000,  28.5757600000)


Analysis of symmetry for initial positions (statically):
=====================================================================
 Subroutine PRICEL returns:
 Original cell was already a primitive cell.
 

 Routine SETGRP: Setting up the symmetry group for a 
 simple orthorhombic supercell.


 Subroutine GETGRP returns: Found  4 space group operations
 (whereof  4 operations were pure point group operations)
 out of a pool of  8 trial point group operations.


The static configuration has the point symmetry C_2v.


Analysis of symmetry for dynamics (positions and initial velocities):
=====================================================================
 Subroutine PRICEL returns:
 Original cell was already a primitive cell.
 

 Routine SETGRP: Setting up the symmetry group for a 
 simple orthorhombic supercell.


 Subroutine GETGRP returns: Found  4 space group operations
 (whereof  4 operations were pure point group operations)
 out of a pool of  8 trial point group operations.


The dynamic configuration has the point symmetry C_2v.


Analysis of constrained symmetry for selective dynamics:
=====================================================================
 Subroutine PRICEL returns:
 Original cell was already a primitive cell.
 

 Routine SETGRP: Setting up the symmetry group for a 
 simple orthorhombic supercell.


 Subroutine GETGRP returns: Found  4 space group operations
 (whereof  4 operations were pure point group operations)
 out of a pool of  8 trial point group operations.


The constrained configuration has the point symmetry C_2v.


Analysis of magnetic symmetry:
=====================================================================

 Subroutine MAGSYM returns: Found  4 space group operations
 (whereof  4 operations were pure point group operations)
 out of a pool of  4 trial space group operations
 (whereof  4 operations were pure point group operations)
 and found also     1 'primitive' translations


The magnetic configuration has the point symmetry C_2v.


 irot  :   1
 --------------------------------------------------------------------
 isymop:   1   0   0
           0   1   0
           0   0   1

 gtrans:     0.0000000     0.0000000     0.0000000

 ptrans:     0.0000000     0.0000000     0.0000000
 rotmap:
 (   1->   1)  (   2->   2)  (   3->   3)  (   4->   4)  (   5->   5) 
 (   6->   6)  (   7->   7)  (   8->   8)  (   9->   9)  (  10->  10) 
 (  11->  11)  (  12->  12)  (  13->  13)  (  14->  14)  (  15->  15) 
 (  16->  16)  (  17->  17)  (  18->  18)  (  19->  19)  (  20->  20) 
 (  21->  21)  (  22->  22)  (  23->  23)  (  24->  24)  (  25->  25) 
 (  26->  26)  (  27->  27)  (  28->  28)  (  29->  29)  (  30->  30) 
 (  31->  31)  (  32->  32)  (  33->  33)  (  34->  34)  (  35->  35) 
 (  36->  36) 


 irot  :   2
 --------------------------------------------------------------------
 isymop:  -1   0   0
           0  -1   0
           0   0   1

 gtrans:     0.0000000     0.0000000     0.0000000

 ptrans:     0.0000000     0.0000000     0.0000000
 rotmap:
 (   1->   1)  (   2->   2)  (   3->   3)  (   4->   5)  (   5->   4) 
 (   6->   7)  (   7->   6)  (   8->   9)  (   9->   8)  (  10->  10) 
 (  11->  11)  (  12->  12)  (  13->  13)  (  14->  14)  (  15->  15) 
 (  16->  17)  (  17->  16)  (  18->  19)  (  19->  18)  (  20->  21) 
 (  21->  20)  (  22->  22)  (  23->  23)  (  24->  24)  (  25->  25) 
 (  26->  26)  (  27->  27)  (  28->  28)  (  29->  29)  (  30->  30) 
 (  31->  31)  (  32->  32)  (  33->  33)  (  34->  34)  (  35->  35) 
 (  36->  36) 


 irot  :   3
 --------------------------------------------------------------------
 isymop:   1   0   0
           0  -1   0
           0   0   1

 gtrans:     0.0000000     0.0000000     0.0000000

 ptrans:     0.0000000     0.0000000     0.0000000
 rotmap:
 (   1->   1)  (   2->   2)  (   3->   3)  (   4->   5)  (   5->   4) 
 (   6->   7)  (   7->   6)  (   8->   9)  (   9->   8)  (  10->  10) 
 (  11->  11)  (  12->  12)  (  13->  13)  (  14->  14)  (  15->  15) 
 (  16->  17)  (  17->  16)  (  18->  19)  (  19->  18)  (  20->  21) 
 (  21->  20)  (  22->  22)  (  23->  23)  (  24->  24)  (  25->  25) 
 (  26->  26)  (  27->  27)  (  28->  28)  (  29->  29)  (  30->  30) 
 (  31->  31)  (  32->  32)  (  33->  33)  (  34->  34)  (  35->  35) 
 (  36->  36) 


 irot  :   4
 --------------------------------------------------------------------
 isymop:  -1   0   0
           0   1   0
           0   0   1

 gtrans:     0.0000000     0.0000000     0.0000000

 ptrans:     0.0000000     0.0000000     0.0000000
 rotmap:
 (   1->   1)  (   2->   2)  (   3->   3)  (   4->   4)  (   5->   5) 
 (   6->   6)  (   7->   7)  (   8->   8)  (   9->   9)  (  10->  10) 
 (  11->  11)  (  12->  12)  (  13->  13)  (  14->  14)  (  15->  15) 
 (  16->  16)  (  17->  17)  (  18->  18)  (  19->  19)  (  20->  20) 
 (  21->  21)  (  22->  22)  (  23->  23)  (  24->  24)  (  25->  25) 
 (  26->  26)  (  27->  27)  (  28->  28)  (  29->  29)  (  30->  30) 
 (  31->  31)  (  32->  32)  (  33->  33)  (  34->  34)  (  35->  35) 
 (  36->  36) 
 
 
 KPOINTS: Automatic mesh                          

Automatic generation of k-mesh.
Space group operators:
 irot       det(A)        alpha          n_x          n_y          n_z        tau_x        tau_y        tau_z
    1     1.000000     0.000000     1.000000     0.000000     0.000000     0.000000     0.000000     0.000000
    2     1.000000   180.000000     0.000000     0.000000     1.000000     0.000000     0.000000     0.000000
    3    -1.000000   180.000000     0.000000     1.000000     0.000000     0.000000     0.000000     0.000000
    4    -1.000000   180.000000     1.000000     0.000000     0.000000     0.000000     0.000000     0.000000
 
 Subroutine IBZKPT returns following result:
 ===========================================
 
 Found     15 irreducible k-points:
 
 Following reciprocal coordinates:
            Coordinates               Weight
  0.000000  0.000000  0.000000      1.000000
  0.111111  0.000000  0.000000      2.000000
  0.222222  0.000000  0.000000      2.000000
  0.333333  0.000000  0.000000      2.000000
  0.444444  0.000000  0.000000      2.000000
  0.000000  0.200000  0.000000      2.000000
  0.111111  0.200000  0.000000      4.000000
  0.222222  0.200000  0.000000      4.000000
  0.333333  0.200000  0.000000      4.000000
  0.444444  0.200000  0.000000      4.000000
  0.000000  0.400000  0.000000      2.000000
  0.111111  0.400000  0.000000      4.000000
  0.222222  0.400000  0.000000      4.000000
  0.333333  0.400000  0.000000      4.000000
  0.444444  0.400000  0.000000      4.000000
 
 Following cartesian coordinates:
            Coordinates               Weight
  0.000000  0.000000  0.000000      1.000000
  0.039108  0.000000  0.000000      2.000000
  0.078217  0.000000  0.000000      2.000000
  0.117325  0.000000  0.000000      2.000000
  0.156433  0.000000  0.000000      2.000000
  0.000000  0.032300  0.000000      2.000000
  0.039108  0.032300  0.000000      4.000000
  0.078217  0.032300  0.000000      4.000000
  0.117325  0.032300  0.000000      4.000000
  0.156433  0.032300  0.000000      4.000000
  0.000000  0.064600  0.000000      2.000000
  0.039108  0.064600  0.000000      4.000000
  0.078217  0.064600  0.000000      4.000000
  0.117325  0.064600  0.000000      4.000000
  0.156433  0.064600  0.000000      4.000000
 
 TETIRR: Found    115 inequivalent tetrahedra from      270


--------------------------------------------------------------------------------------------------------




 Dimension of arrays:
   k-points           NKPTS =     15   k-points in BZ     NKDIM =     15   number of bands    NBANDS=    136
   number of dos      NEDOS =    301   number of ions     NIONS =     36
   non local maximal  LDIM  =      6   non local SUM 2l+1 LMDIM =     18
   total plane-waves  NPLWV =  92160
   max r-space proj   IRMAX =      1   max aug-charges    IRDMAX=   6939
   dimension x,y,z NGX =    16 NGY =   36 NGZ =  160
   dimension x,y,z NGXF=    32 NGYF=   72 NGZF=  320
   support grid    NGXF=    32 NGYF=   72 NGZF=  320
   ions per type =              24  12
 NGX,Y,Z   is equivalent  to a cutoff of   9.36,  9.67,  9.31 a.u.
 NGXF,Y,Z  is equivalent  to a cutoff of  18.72, 19.33, 18.62 a.u.


 I would recommend the setting:
   dimension x,y,z NGX =    16 NGY =   35 NGZ =  159
 SYSTEM =  (Mn O2)12  (P1) ~ POSCAR_5_P1 1 1 0  su 
 POSCAR =  (Mn O2)12  (P1) ~ POSCAR_5_P1 1 1 0  sur

 Startparameter for this run:
   NWRITE =      1    write-flag & timer
   PREC   = normal    normal or accurate (medium, high low for compatibility)
   ISTART =      0    job   : 0-new  1-cont  2-samecut
   ICHARG =      2    charge: 1-file 2-atom 10-const
   ISPIN  =      2    spin polarized calculation?
   LNONCOLLINEAR =      F non collinear calculations
   LSORBIT =      F    spin-orbit coupling
   INIWAV =      1    electr: 0-lowe 1-rand  2-diag
   LASPH  =      F    aspherical Exc in radial PAW
   METAGGA=      F    non-selfconsistent MetaGGA calc.

 Electronic Relaxation 1
   ENCUT  =  520.0 eV  38.22 Ry    6.18 a.u.   5.28 11.51 53.13*2*pi/ulx,y,z
   ENINI  =  520.0     initial cutoff
   ENAUG  =  605.4 eV  augmentation charge cutoff
   NELM   =     60;   NELMIN=  2; NELMDL= -5     # of ELM steps 
   EDIFF  = 0.1E-03   stopping-criterion for ELM
   LREAL  =      F    real-space projection
   NLSPLINE    = F    spline interpolate recip. space projectors
   LCOMPAT=      F    compatible to vasp.4.4
   GGA_COMPAT  = T    GGA compatible to vasp.4.4-vasp.4.6
   LMAXPAW     = -100 max onsite density
   LMAXMIX     =    2 max onsite mixed and CHGCAR
   VOSKOWN=      1    Vosko Wilk Nusair interpolation
   ROPT   =    0.00000   0.00000
 Ionic relaxation
   EDIFFG = 0.1E-02   stopping-criterion for IOM
   NSW    =      0    number of steps for IOM
   NBLOCK =      1;   KBLOCK =      1    inner block; outer block 
   IBRION =     -1    ionic relax: 0-MD 1-quasi-New 2-CG
   NFREE  =      0    steps in history (QN), initial steepest desc. (CG)
   ISIF   =      2    stress and relaxation
   IWAVPR =     10    prediction:  0-non 1-charg 2-wave 3-comb
   ISYM   =      2    0-nonsym 1-usesym 2-fastsym
   LCORR  =      T    Harris-Foulkes like correction to forces

   POTIM  = 0.5000    time-step for ionic-motion
   TEIN   =    0.0    initial temperature
   TEBEG  =    0.0;   TEEND  =   0.0 temperature during run
   SMASS  =  -3.00    Nose mass-parameter (am)
   estimated Nose-frequenzy (Omega)   =  0.10E-29 period in steps =****** mass=  -0.184E-27a.u.
   SCALEE = 1.0000    scale energy and forces
   NPACO  =    256;   APACO  = 16.0  distance and # of slots for P.C.
   PSTRESS=    0.0 pullay stress

  Mass of Ions in am
   POMASS =  16.00 54.94
  Ionic Valenz
   ZVAL   =   6.00  7.00
  Atomic Wigner-Seitz radii
   RWIGS  =  -1.00 -1.00
  virtual crystal weights 
   VCA    =   1.00  1.00
   NELECT =     228.0000    total number of electrons
   NUPDOWN=      -1.0000    fix difference up-down

 DOS related values:
   EMIN   =  10.00;   EMAX   =-10.00  energy-range for DOS
   EFERMI =   0.00
   ISMEAR =    -5;   SIGMA  =   0.20  broadening in eV -4-tet -1-fermi 0-gaus

 Electronic relaxation 2 (details)
   IALGO  =     38    algorithm
   LDIAG  =      T    sub-space diagonalisation (order eigenvalues)
   LSUBROT=      T    optimize rotation matrix (better conditioning)
   TURBO    =      0    0=normal 1=particle mesh
   IRESTART =      0    0=no restart 2=restart with 2 vectors
   NREBOOT  =      0    no. of reboots
   NMIN     =      0    reboot dimension
   EREF     =   0.00    reference energy to select bands
   IMIX   =      4    mixing-type and parameters
     AMIX     =   0.40;   BMIX     =  1.00
     AMIX_MAG =   1.60;   BMIX_MAG =  1.00
     AMIN     =   0.10
     WC   =   100.;   INIMIX=   1;  MIXPRE=   1;  MAXMIX= -45

 Intra band minimization:
   WEIMIN = 0.0000     energy-eigenvalue tresh-hold
   EBREAK =  0.18E-06  absolut break condition
   DEPER  =   0.30     relativ break condition  

   TIME   =   0.40     timestep for ELM

  volume/ion in A,a.u.               =      13.96        94.23
  Fermi-wavevector in a.u.,A,eV,Ry     =   1.257813  2.376922 21.525687  1.582093
  Thomas-Fermi vector in A             =   2.391453
 
 Write flags
   LWAVE  =      F    write WAVECAR
   LCHARG =      T    write CHGCAR
   LVTOT  =      F    write LOCPOT, total local potential
   LVHAR  =      F    write LOCPOT, Hartree potential only
   LELF   =      F    write electronic localiz. function (ELF)
   LORBIT =      0    0 simple, 1 ext, 2 COOP (PROOUT)


 Dipole corrections
   LMONO  =      F    monopole corrections only (constant potential shift)
   LDIPOL =      F    correct potential (dipole corrections)
   IDIPOL =      0    1-x, 2-y, 3-z, 4-all directions 
   EPSILON=  1.0000000 bulk dielectric constant

 Exchange correlation treatment:
   GGA     =    PS    GGA type
   LEXCH   =    14    internal setting for exchange type
   VOSKOWN=      1    Vosko Wilk Nusair interpolation
   LHFCALC =     F    Hartree Fock is set to
   LHFONE  =     F    Hartree Fock one center treatment
   AEXX    =    0.0000 exact exchange contribution

 Linear response parameters
   LEPSILON=     F    determine dielectric tensor
   LRPA    =     F    only Hartree local field effects (RPA)
   LNABLA  =     F    use nabla operator in PAW spheres
   LVEL    =     F    velocity operator in full k-point grid
   LINTERFAST=   F  fast interpolation
   KINTER  =     0    interpolate to denser k-point grid
   CSHIFT  =0.1000    complex shift for real part using Kramers Kronig
   OMEGAMAX=  -1.0    maximum frequency
   DEG_THRESHOLD= 0.2000000E-02 threshold for treating states as degnerate
   RTIME   =    0.100 relaxation time in fs

 Orbital magnetization related:
   ORBITALMAG=     F  switch on orbital magnetization
   LCHIMAG   =     F  perturbation theory with respect to B field
   DQ        =  0.001000  dq finite difference perturbation B field



--------------------------------------------------------------------------------------------------------


 Static calculation
 charge density and potential will be updated during run
 spin polarized calculation
 Variant of blocked Davidson
 Davidson routine will perform the subspace rotation
 perform sub-space diagonalisation
    after iterative eigenvector-optimisation
 modified Broyden-mixing scheme, WC =      100.0
 initial mixing is a Kerker type mixing with AMIX =  0.4000 and BMIX =      1.0000
 Hartree-type preconditioning will be used
 using additional bands           22
 reciprocal scheme for non local part
 use partial core corrections
 calculate Harris-corrections to forces 
   (improved forces if not selfconsistent)
 use gradient corrections 
 use of overlap-Matrix (Vanderbilt PP)
 Fermi weights with tetrahedron method with Bloechl corrections


--------------------------------------------------------------------------------------------------------


  energy-cutoff  :      520.00
  volume of cell :      502.70
      direct lattice vectors                 reciprocal lattice vectors
     2.841110000  0.000000000  0.000000000     0.351975108  0.000000000  0.000000000
     0.000000000  6.191920000  0.000000000     0.000000000  0.161500795  0.000000000
     0.000000000  0.000000000 28.575760000     0.000000000  0.000000000  0.034994695

  length of vectors
     2.841110000  6.191920000 28.575760000     0.351975108  0.161500795  0.034994695


 
 k-points in units of 2pi/SCALE and weight: Automatic mesh                          
   0.00000000  0.00000000  0.00000000       0.022
   0.03910835  0.00000000  0.00000000       0.044
   0.07821669  0.00000000  0.00000000       0.044
   0.11732504  0.00000000  0.00000000       0.044
   0.15643338  0.00000000  0.00000000       0.044
   0.00000000  0.03230016  0.00000000       0.044
   0.03910835  0.03230016  0.00000000       0.089
   0.07821669  0.03230016  0.00000000       0.089
   0.11732504  0.03230016  0.00000000       0.089
   0.15643338  0.03230016  0.00000000       0.089
   0.00000000  0.06460032  0.00000000       0.044
   0.03910835  0.06460032  0.00000000       0.089
   0.07821669  0.06460032  0.00000000       0.089
   0.11732504  0.06460032  0.00000000       0.089
   0.15643338  0.06460032  0.00000000       0.089
 
 k-points in reciprocal lattice and weights: Automatic mesh                          
   0.00000000  0.00000000  0.00000000       0.022
   0.11111111  0.00000000  0.00000000       0.044
   0.22222222  0.00000000  0.00000000       0.044
   0.33333333  0.00000000  0.00000000       0.044
   0.44444444  0.00000000  0.00000000       0.044
   0.00000000  0.20000000  0.00000000       0.044
   0.11111111  0.20000000  0.00000000       0.089
   0.22222222  0.20000000  0.00000000       0.089
   0.33333333  0.20000000  0.00000000       0.089
   0.44444444  0.20000000  0.00000000       0.089
   0.00000000  0.40000000  0.00000000       0.044
   0.11111111  0.40000000  0.00000000       0.089
   0.22222222  0.40000000  0.00000000       0.089
   0.33333333  0.40000000  0.00000000       0.089
   0.44444444  0.40000000  0.00000000       0.089
 
 position of ions in fractional coordinates (direct lattice) 
   0.00000000  0.50000000  0.24070903
   0.00000000  0.50000000  0.45739338
   0.00000000  0.50000000  0.67330543
   0.50000000  0.30337010  0.17497347
   0.50000000  0.69662990  0.17497347
   0.50000000  0.30337010  0.39165782
   0.50000000  0.69662990  0.39165782
   0.50000000  0.30385765  0.60836211
   0.50000000  0.69614235  0.60836211
   0.00000000  0.50000000  0.32592227
   0.00000000  0.50000000  0.54254060
   0.00000000  0.50000000  0.75650927
   0.00000000  0.00000000  0.34905120
   0.00000000  0.00000000  0.56524225
   0.00000000  0.00000000  0.78018068
   0.50000000  0.80337010  0.28331565
   0.50000000  0.19662990  0.28331565
   0.50000000  0.80337586  0.49990791
   0.50000000  0.19662414  0.49990791
   0.50000000  0.80943525  0.71527770
   0.50000000  0.19056475  0.71527770
   0.00000000  0.00000000  0.21758010
   0.00000000  0.00000000  0.43426445
   0.00000000  0.00000000  0.65014855
   0.50000000  0.50000000  0.28331565
   0.50000000  0.50000000  0.49990700
   0.50000000  0.50000000  0.71699184
   0.00000000  0.50000000  0.17497347
   0.00000000  0.50000000  0.39165782
   0.00000000  0.50000000  0.60837216
   0.50000000  0.00000000  0.17497347
   0.50000000  0.00000000  0.39165782
   0.50000000  0.00000000  0.60919929
   0.00000000  0.00000000  0.28331565
   0.00000000  0.00000000  0.50061918
   0.00000000  0.00000000  0.72530837
 
 position of ions in cartesian coordinates  (Angst):
   0.00000000  3.09596000  6.87844347
   0.00000000  3.09596000 13.07036345
   0.00000000  3.09596000 19.24021431
   1.42055500  1.87844339  4.99999989
   1.42055500  4.31347661  4.99999989
   1.42055500  1.87844339 11.19191987
   1.42055500  4.31347661 11.19191987
   1.42055500  1.88146227 17.38440961
   1.42055500  4.31045773 17.38440961
   0.00000000  3.09596000  9.31347657
   0.00000000  3.09596000 15.50351003
   0.00000000  3.09596000 21.61782747
   0.00000000  0.00000000  9.97440332
   0.00000000  0.00000000 16.15222698
   0.00000000  0.00000000 22.29425584
   1.42055500  4.97440339  8.09596002
   1.42055500  1.21751661  8.09596002
   1.42055500  4.97443908 14.28524855
   1.42055500  1.21748092 14.28524855
   1.42055500  5.01195833 20.43960378
   1.42055500  1.17996167 20.43960378
   0.00000000  0.00000000  6.21751672
   0.00000000  0.00000000 12.40943670
   0.00000000  0.00000000 18.57848890
   1.42055500  3.09596000  8.09596002
   1.42055500  3.09596000 14.28522235
   1.42055500  3.09596000 20.48858669
   0.00000000  3.09596000  4.99999989
   0.00000000  3.09596000 11.19191987
   0.00000000  3.09596000 17.38469679
   1.42055500  0.00000000  4.99999989
   1.42055500  0.00000000 11.19191987
   1.42055500  0.00000000 17.40833272
   0.00000000  0.00000000  8.09596002
   0.00000000  0.00000000 14.30557359
   0.00000000  0.00000000 20.72623783
 


--------------------------------------------------------------------------------------------------------


 k-point  1 :   0.0000 0.0000 0.0000  plane waves:   13591
 k-point  2 :   0.1111 0.0000 0.0000  plane waves:   13581
 k-point  3 :   0.2222 0.0000 0.0000  plane waves:   13529
 k-point  4 :   0.3333 0.0000 0.0000  plane waves:   13506
 k-point  5 :   0.4444 0.0000 0.0000  plane waves:   13550
 k-point  6 :   0.0000 0.2000 0.0000  plane waves:   13585
 k-point  7 :   0.1111 0.2000 0.0000  plane waves:   13556
 k-point  8 :   0.2222 0.2000 0.0000  plane waves:   13514
 k-point  9 :   0.3333 0.2000 0.0000  plane waves:   13538
 k-point 10 :   0.4444 0.2000 0.0000  plane waves:   13528
 k-point 11 :   0.0000 0.4000 0.0000  plane waves:   13551
 k-point 12 :   0.1111 0.4000 0.0000  plane waves:   13536
 k-point 13 :   0.2222 0.4000 0.0000  plane waves:   13544
 k-point 14 :   0.3333 0.4000 0.0000  plane waves:   13505
 k-point 15 :   0.4444 0.4000 0.0000  plane waves:   13531

 maximum and minimum number of plane-waves per node :      1382     1319

 maximum number of plane-waves:     13591
 maximum index in each direction: 
   IXMAX=    5   IYMAX=   11   IZMAX=   53
   IXMIN=   -5   IYMIN=  -11   IZMIN=  -53

 WARNING: aliasing errors must be expected set NGX to  22 to avoid them
 WARNING: aliasing errors must be expected set NGY to  46 to avoid them
 WARNING: aliasing errors must be expected set NGZ to 214 to avoid them
 aliasing errors are usually negligible using standard VASP settings
 and one can safely disregard these warnings

 parallel 3D FFT for wavefunctions:
    minimum data exchange during FFTs selected (reduces bandwidth)
 parallel 3D FFT for charge:
    minimum data exchange during FFTs selected (reduces bandwidth)


 total amount of memory used by VASP on root node    52160. kBytes
========================================================================

   base      :      30000. kBytes
   nonl-proj :       6658. kBytes
   fftplans  :       1048. kBytes
   grid      :       2776. kBytes
   one-center:        124. kBytes
   wavefun   :      11554. kBytes
 
 Broyden mixing: mesh for mixing (old mesh)
   NGX = 11   NGY = 23   NGZ =107
  (NGX  = 32   NGY  = 72   NGZ  =320)
  gives a total of  27071 points

 initial charge density was supplied:
 charge density of overlapping atoms calculated
 number of electron     228.0000000 magnetization       0.0000000
 keeping initial charge density in first step


--------------------------------------------------------------------------------------------------------


 Maximum index for augmentation-charges          429 (set IRDMAX)


--------------------------------------------------------------------------------------------------------


 First call to EWALD:  gamma=   0.223
 Maximum number of real-space cells 7x 3x 1
 Maximum number of reciprocal cells 1x 2x 9

 FEWALD executed in parallel
    FEWALD:  cpu time    0.00: real time    0.00


----------------------------------------- Iteration    1(   1)  ---------------------------------------


    POTLOK:  cpu time    0.06: real time    0.06
    SETDIJ:  cpu time    0.01: real time    0.01
     EDDAV:  cpu time    4.68: real time    4.68
 BZINTS: Fermi energy: 22.493944;228.000000 electrons
         Band energy:2412.263807;  BLOECHL correction: -0.140622
       DOS:  cpu time    0.03: real time    0.03
    --------------------------------------------
      LOOP:  cpu time    4.78: real time    4.84

 eigenvalue-minimisations  :  8168
 total energy-change (2. order) : 0.3704059E+04  (-0.9774894E+04)
 number of electron     228.0000000 magnetization       0.0000000
 augmentation part      228.0000000 magnetization       0.0000000

 Free energy of the ion-electron system (eV)
  ---------------------------------------------------
  alpha Z        PSCENC =       681.33398086
  Ewald energy   TEWEN  =     65762.76963288
  -1/2 Hartree   DENC   =    -81181.62525474
  -exchange  EXHF       =         0.00000000
  -V(xc)+E(xc)   XCENC  =       558.76986688
  PAW double counting   =     13157.27499130   -13018.43882960
  entropy T*S    EENTRO =         0.00000000
  eigenvalues    EBANDS =      2412.26380678
  atomic energy  EATOM  =     15331.71128874
  ---------------------------------------------------
  free energy    TOTEN  =      3704.05948311 eV

  energy without entropy =     3704.05948311  energy(sigma->0) =     3704.05948311


--------------------------------------------------------------------------------------------------------




----------------------------------------- Iteration    1(   2)  ---------------------------------------


     EDDAV:  cpu time    4.71: real time    4.71
 BZINTS: Fermi energy:  8.159745;228.000000 electrons
         Band energy:-545.801446;  BLOECHL correction: -0.044050
       DOS:  cpu time    0.04: real time    0.04
    --------------------------------------------
      LOOP:  cpu time    4.75: real time    4.83

 eigenvalue-minimisations  :  8328
 total energy-change (2. order) :-0.2958065E+04  (-0.2825605E+04)
 number of electron     228.0000000 magnetization       0.0000000
 augmentation part      228.0000000 magnetization       0.0000000

 Free energy of the ion-electron system (eV)
  ---------------------------------------------------
  alpha Z        PSCENC =       681.33398086
  Ewald energy   TEWEN  =     65762.76963288
  -1/2 Hartree   DENC   =    -81181.62525474
  -exchange  EXHF       =         0.00000000
  -V(xc)+E(xc)   XCENC  =       558.76986688
  PAW double counting   =     13157.27499130   -13018.43882960
  entropy T*S    EENTRO =         0.00000000
  eigenvalues    EBANDS =      -545.80144572
  atomic energy  EATOM  =     15331.71128874
  ---------------------------------------------------
  free energy    TOTEN  =       745.99423061 eV

  energy without entropy =      745.99423061  energy(sigma->0) =      745.99423061


--------------------------------------------------------------------------------------------------------




----------------------------------------- Iteration    1(   3)  ---------------------------------------


     EDDAV:  cpu time    6.72: real time    6.72
 BZINTS: Fermi energy:  4.493941;228.000000 electrons
         Band energy:***********;  BLOECHL correction: -0.083578
       DOS:  cpu time    0.04: real time    0.04
    --------------------------------------------
      LOOP:  cpu time    6.76: real time    6.94

 eigenvalue-minimisations  : 13280
 total energy-change (2. order) :-0.9733978E+03  (-0.9261768E+03)
 number of electron     228.0000000 magnetization       0.0000000
 augmentation part      228.0000000 magnetization       0.0000000

 Free energy of the ion-electron system (eV)
  ---------------------------------------------------
  alpha Z        PSCENC =       681.33398086
  Ewald energy   TEWEN  =     65762.76963288
  -1/2 Hartree   DENC   =    -81181.62525474
  -exchange  EXHF       =         0.00000000
  -V(xc)+E(xc)   XCENC  =       558.76986688
  PAW double counting   =     13157.27499130   -13018.43882960
  entropy T*S    EENTRO =         0.00000000
  eigenvalues    EBANDS =     -1519.19921427
  atomic energy  EATOM  =     15331.71128874
  ---------------------------------------------------
  free energy    TOTEN  =      -227.40353794 eV

  energy without entropy =     -227.40353794  energy(sigma->0) =     -227.40353794


--------------------------------------------------------------------------------------------------------




----------------------------------------- Iteration    1(   4)  ---------------------------------------


     EDDAV:  cpu time    6.57: real time    6.57
 BZINTS: Fermi energy:  3.191353;228.000000 electrons
         Band energy:***********;  BLOECHL correction: -0.014345
       DOS:  cpu time    0.03: real time    0.04
    --------------------------------------------
      LOOP:  cpu time    6.61: real time    6.80

 eigenvalue-minimisations  : 12944
 total energy-change (2. order) :-0.1566577E+03  (-0.1528312E+03)
 number of electron     228.0000000 magnetization       0.0000000
 augmentation part      228.0000000 magnetization       0.0000000

 Free energy of the ion-electron system (eV)
  ---------------------------------------------------
  alpha Z        PSCENC =       681.33398086
  Ewald energy   TEWEN  =     65762.76963288
  -1/2 Hartree   DENC   =    -81181.62525474
  -exchange  EXHF       =         0.00000000
  -V(xc)+E(xc)   XCENC  =       558.76986688
  PAW double counting   =     13157.27499130   -13018.43882960
  entropy T*S    EENTRO =         0.00000000
  eigenvalues    EBANDS =     -1675.85687986
  atomic energy  EATOM  =     15331.71128874
  ---------------------------------------------------
  free energy    TOTEN  =      -384.06120353 eV

  energy without entropy =     -384.06120353  energy(sigma->0) =     -384.06120353


--------------------------------------------------------------------------------------------------------




----------------------------------------- Iteration    1(   5)  ---------------------------------------


     EDDAV:  cpu time    6.54: real time    6.54
 BZINTS: Fermi energy:  3.035616;228.000000 electrons
         Band energy:***********;  BLOECHL correction: -0.007359
       DOS:  cpu time    0.03: real time    0.03
    CHARGE:  cpu time    0.17: real time    0.17
    MIXING:  cpu time    0.00: real time    0.00
    --------------------------------------------
      LOOP:  cpu time    6.74: real time    6.93

 eigenvalue-minimisations  : 12936
 total energy-change (2. order) :-0.7692057E+01  (-0.7525797E+01)
 number of electron     228.0000431 magnetization       0.1427540
 augmentation part       45.0635507 magnetization      -0.8647882

 Broyden mixing:
  rms(total) = 0.10331E+02    rms(broyden)= 0.10330E+02
  rms(prec ) = 0.10547E+02
  weight for this iteration     100.00

 Free energy of the ion-electron system (eV)
  ---------------------------------------------------
  alpha Z        PSCENC =       681.33398086
  Ewald energy   TEWEN  =     65762.76963288
  -1/2 Hartree   DENC   =    -81181.62525474
  -exchange  EXHF       =         0.00000000
  -V(xc)+E(xc)   XCENC  =       558.76986688
  PAW double counting   =     13157.27499130   -13018.43882960
  entropy T*S    EENTRO =         0.00000000
  eigenvalues    EBANDS =     -1683.54893686
  atomic energy  EATOM  =     15331.71128874
  ---------------------------------------------------
  free energy    TOTEN  =      -391.75326054 eV

  energy without entropy =     -391.75326054  energy(sigma->0) =     -391.75326054


--------------------------------------------------------------------------------------------------------




----------------------------------------- Iteration    1(   6)  ---------------------------------------


    POTLOK:  cpu time    0.06: real time    0.06
    SETDIJ:  cpu time    0.01: real time    0.01
     EDDAV:  cpu time    7.24: real time    7.24
 BZINTS: Fermi energy: -0.370076;228.000000 electrons
         Band energy:***********;  BLOECHL correction: -0.050758
       DOS:  cpu time    0.04: real time    0.04
    CHARGE:  cpu time    0.17: real time    0.17
    MIXING:  cpu time    0.00: real time    0.00
    --------------------------------------------
      LOOP:  cpu time    7.52: real time    7.62

 eigenvalue-minimisations  : 14544
 total energy-change (2. order) :-0.2101863E+02  (-0.1358548E+03)
 number of electron     228.0000039 magnetization       0.1636951
 augmentation part       72.0040170 magnetization       0.3061710

 Broyden mixing:
  rms(total) = 0.16936E+02    rms(broyden)= 0.16935E+02
  rms(prec ) = 0.19360E+02
  weight for this iteration     100.00

 eigenvalues of (default mixing * dielectric matrix)
  average eigenvalue GAMMA=   0.2158
  0.2158

 Free energy of the ion-electron system (eV)
  ---------------------------------------------------
  alpha Z        PSCENC =       681.33398086
  Ewald energy   TEWEN  =     65762.76963288
  -1/2 Hartree   DENC   =    -81329.40959121
  -exchange  EXHF       =         0.00000000
  -V(xc)+E(xc)   XCENC  =       579.57664506
  PAW double counting   =     15790.96005277   -15623.58193238
  entropy T*S    EENTRO =         0.00000000
  eigenvalues    EBANDS =     -1606.13196934
  atomic energy  EATOM  =     15331.71128874
  ---------------------------------------------------
  free energy    TOTEN  =      -412.77189260 eV

  energy without entropy =     -412.77189260  energy(sigma->0) =     -412.77189260


--------------------------------------------------------------------------------------------------------




----------------------------------------- Iteration    1(   7)  ---------------------------------------


    POTLOK:  cpu time    0.06: real time    0.06
    SETDIJ:  cpu time    0.01: real time    0.01
     EDDAV:  cpu time    7.79: real time    7.79
 BZINTS: Fermi energy:  4.704456;227.993616 electrons
         Band energy:***********;  BLOECHL correction: -0.036782
       DOS:  cpu time    0.05: real time    0.05
    CHARGE:  cpu time    0.17: real time    0.17
    MIXING:  cpu time    0.00: real time    0.00
    --------------------------------------------
      LOOP:  cpu time    8.08: real time    8.18

 eigenvalue-minimisations  : 15848
 total energy-change (2. order) :-0.2633853E+03  (-0.3206126E+03)
 number of electron     227.9936298 magnetization       0.1646026
 augmentation part       62.8826665 magnetization       0.6292718

 Broyden mixing:
  rms(total) = 0.33121E+02    rms(broyden)= 0.33120E+02
  rms(prec ) = 0.38663E+02
  weight for this iteration     100.00

 eigenvalues of (default mixing * dielectric matrix)
  average eigenvalue GAMMA=   0.1461
  0.2176  0.0745

 Free energy of the ion-electron system (eV)
  ---------------------------------------------------
  alpha Z        PSCENC =       681.33398086
  Ewald energy   TEWEN  =     65762.76963288
  -1/2 Hartree   DENC   =    -81310.04224108
  -exchange  EXHF       =         0.00000000
  -V(xc)+E(xc)   XCENC  =       566.47007547
  PAW double counting   =     16368.46298483   -16224.21324281
  entropy T*S    EENTRO =         0.00000000
  eigenvalues    EBANDS =     -1852.64962401
  atomic energy  EATOM  =     15331.71128874
  ---------------------------------------------------
  free energy    TOTEN  =      -676.15714511 eV

  energy without entropy =     -676.15714511  energy(sigma->0) =     -676.15714511


--------------------------------------------------------------------------------------------------------




----------------------------------------- Iteration    1(   8)  ---------------------------------------


    POTLOK:  cpu time    0.06: real time    0.06
    SETDIJ:  cpu time    0.01: real time    0.01
     EDDAV:  cpu time    6.77: real time    6.77
 BZINTS: Fermi energy:  5.171812;228.000000 electrons
         Band energy:***********;  BLOECHL correction: -0.033831
       DOS:  cpu time    0.04: real time    0.04
    CHARGE:  cpu time    0.17: real time    0.17
    MIXING:  cpu time    0.00: real time    0.00
    --------------------------------------------
      LOOP:  cpu time    7.05: real time    7.17

 eigenvalue-minimisations  : 13456
 total energy-change (2. order) :-0.2695962E+03  (-0.1001458E+03)
 number of electron     228.0000157 magnetization       0.1640552
 augmentation part       63.7665779 magnetization       1.0679114

 Broyden mixing:
  rms(total) = 0.33066E+02    rms(broyden)= 0.33066E+02
  rms(prec ) = 0.40112E+02
  weight for this iteration     100.00

 eigenvalues of (default mixing * dielectric matrix)
  average eigenvalue GAMMA=   0.0973
  0.2174  0.0715  0.0031

 Free energy of the ion-electron system (eV)
  ---------------------------------------------------
  alpha Z        PSCENC =       681.33398086
  Ewald energy   TEWEN  =     65762.76963288
  -1/2 Hartree   DENC   =    -81277.29098863
  -exchange  EXHF       =         0.00000000
  -V(xc)+E(xc)   XCENC  =       567.78113566
  PAW double counting   =     16268.81329254   -16122.37993183
  entropy T*S    EENTRO =         0.00000000
  eigenvalues    EBANDS =     -2158.49172323
  atomic energy  EATOM  =     15331.71128874
  ---------------------------------------------------
  free energy    TOTEN  =      -945.75331301 eV

  energy without entropy =     -945.75331301  energy(sigma->0) =     -945.75331301


--------------------------------------------------------------------------------------------------------




----------------------------------------- Iteration    1(   9)  ---------------------------------------


    POTLOK:  cpu time    0.06: real time    0.06
    SETDIJ:  cpu time    0.01: real time    0.01
     EDDAV:  cpu time    6.22: real time    6.23
 BZINTS: Fermi energy:  4.014204;228.000000 electrons
         Band energy:***********;  BLOECHL correction: -0.023669
       DOS:  cpu time    0.04: real time    0.04
    CHARGE:  cpu time    0.17: real time    0.17
    MIXING:  cpu time    0.00: real time    0.00
    --------------------------------------------
      LOOP:  cpu time    6.50: real time    6.74

 eigenvalue-minimisations  : 12016
 total energy-change (2. order) : 0.1095324E+03  (-0.1531399E+02)
 number of electron     228.0000186 magnetization       0.1868563
 augmentation part       60.9510560 magnetization       0.7459407

 Broyden mixing:
  rms(total) = 0.24417E+02    rms(broyden)= 0.24417E+02
  rms(prec ) = 0.33046E+02
  weight for this iteration     100.00

 eigenvalues of (default mixing * dielectric matrix)
  average eigenvalue GAMMA=   0.1794
  0.1413  0.2416  0.2416  0.0931

 Free energy of the ion-electron system (eV)
  ---------------------------------------------------
  alpha Z        PSCENC =       681.33398086
  Ewald energy   TEWEN  =     65762.76963288
  -1/2 Hartree   DENC   =    -81330.06421827
  -exchange  EXHF       =         0.00000000
  -V(xc)+E(xc)   XCENC  =       567.84728770
  PAW double counting   =     16236.86699251   -16091.67863115
  entropy T*S    EENTRO =         0.00000000
  eigenvalues    EBANDS =     -1995.00728218
  atomic energy  EATOM  =     15331.71128874
  ---------------------------------------------------
  free energy    TOTEN  =      -836.22094891 eV

  energy without entropy =     -836.22094891  energy(sigma->0) =     -836.22094891


--------------------------------------------------------------------------------------------------------




----------------------------------------- Iteration    1(  10)  ---------------------------------------


    POTLOK:  cpu time    0.06: real time    0.06
    SETDIJ:  cpu time    0.01: real time    0.01
     EDDAV:  cpu time    7.41: real time    7.41
 BZINTS: Fermi energy:  3.187200;228.000000 electrons
         Band energy:***********;  BLOECHL correction: -0.043439
       DOS:  cpu time    0.04: real time    0.04
    CHARGE:  cpu time    0.17: real time    0.17
    MIXING:  cpu time    0.00: real time    0.00
    --------------------------------------------
      LOOP:  cpu time    7.68: real time    7.78

 eigenvalue-minimisations  : 14880
 total energy-change (2. order) : 0.4123902E+03  (-0.3357000E+03)
 number of electron     228.0000136 magnetization       0.2013361
 augmentation part       60.1819398 magnetization       0.8484020

 Broyden mixing:
  rms(total) = 0.46092E+02    rms(broyden)= 0.46092E+02
  rms(prec ) = 0.47747E+02
  weight for this iteration     100.00

 eigenvalues of (default mixing * dielectric matrix)
  average eigenvalue GAMMA=   0.1523
  0.2350  0.1334  0.1334  0.1297  0.1297

 Free energy of the ion-electron system (eV)
  ---------------------------------------------------
  alpha Z        PSCENC =       681.33398086
  Ewald energy   TEWEN  =     65762.76963288
  -1/2 Hartree   DENC   =    -81188.81926838
  -exchange  EXHF       =         0.00000000
  -V(xc)+E(xc)   XCENC  =       560.30128298
  PAW double counting   =     16033.19781775   -15892.71184785
  entropy T*S    EENTRO =         0.00000000
  eigenvalues    EBANDS =     -1711.61368297
  atomic energy  EATOM  =     15331.71128874
  ---------------------------------------------------
  free energy    TOTEN  =      -423.83079599 eV

  energy without entropy =     -423.83079599  energy(sigma->0) =     -423.83079599


--------------------------------------------------------------------------------------------------------




----------------------------------------- Iteration    1(  11)  ---------------------------------------


    POTLOK:  cpu time    0.06: real time    0.06
    SETDIJ:  cpu time    0.01: real time    0.01
     EDDAV:  cpu time    6.88: real time    6.88
 BZINTS: Fermi energy:  0.390994;228.000000 electrons
         Band energy:***********;  BLOECHL correction: -0.031683
       DOS:  cpu time    0.04: real time    0.04
    CHARGE:  cpu time    0.17: real time    0.17
    MIXING:  cpu time    0.00: real time    0.00
    --------------------------------------------
      LOOP:  cpu time    7.15: real time    7.25

 eigenvalue-minimisations  : 13688
 total energy-change (2. order) :-0.4906816E+02  (-0.1145323E+03)
 number of electron     228.0000171 magnetization       0.2107538
 augmentation part       55.2471393 magnetization       0.8672572

 Broyden mixing:
  rms(total) = 0.25331E+02    rms(broyden)= 0.25331E+02
  rms(prec ) = 0.27336E+02
  weight for this iteration     100.00

 eigenvalues of (default mixing * dielectric matrix)
  average eigenvalue GAMMA=   0.1591
  0.1496  0.1496  0.2301  0.2301  0.0975  0.0975

 Free energy of the ion-electron system (eV)
  ---------------------------------------------------
  alpha Z        PSCENC =       681.33398086
  Ewald energy   TEWEN  =     65762.76963288
  -1/2 Hartree   DENC   =    -80996.25829075
  -exchange  EXHF       =         0.00000000
  -V(xc)+E(xc)   XCENC  =       561.91554162
  PAW double counting   =     15654.62023658   -15513.00210823
  entropy T*S    EENTRO =         0.00000000
  eigenvalues    EBANDS =     -1955.98923296
  atomic energy  EATOM  =     15331.71128874
  ---------------------------------------------------
  free energy    TOTEN  =      -472.89895126 eV

  energy without entropy =     -472.89895126  energy(sigma->0) =     -472.89895126


--------------------------------------------------------------------------------------------------------




----------------------------------------- Iteration    1(  12)  ---------------------------------------


    POTLOK:  cpu time    0.06: real time    0.06
    SETDIJ:  cpu time    0.01: real time    0.01
     EDDAV:  cpu time    6.56: real time    6.57
 BZINTS: Fermi energy:  0.695197;228.000000 electrons
         Band energy:***********;  BLOECHL correction: -0.035445
       DOS:  cpu time    0.04: real time    0.04
    CHARGE:  cpu time    0.17: real time    0.17
    MIXING:  cpu time    0.00: real time    0.00
    --------------------------------------------
      LOOP:  cpu time    6.84: real time    6.94

 eigenvalue-minimisations  : 12848
 total energy-change (2. order) : 0.1010499E+03  (-0.2426351E+02)
 number of electron     228.0000256 magnetization       0.2317190
 augmentation part       50.9331041 magnetization       0.1780446

 Broyden mixing:
  rms(total) = 0.15431E+02    rms(broyden)= 0.15430E+02
  rms(prec ) = 0.16711E+02
  weight for this iteration     100.00

 eigenvalues of (default mixing * dielectric matrix)
  average eigenvalue GAMMA=   0.1741
  0.1516  0.1516  0.2439  0.2439  0.2080  0.1099  0.1099

 Free energy of the ion-electron system (eV)
  ---------------------------------------------------
  alpha Z        PSCENC =       681.33398086
  Ewald energy   TEWEN  =     65762.76963288
  -1/2 Hartree   DENC   =    -81239.00730222
  -exchange  EXHF       =         0.00000000
  -V(xc)+E(xc)   XCENC  =       559.49238329
  PAW double counting   =     15699.06991839   -15558.45066821
  entropy T*S    EENTRO =         0.00000000
  eigenvalues    EBANDS =     -1608.76833472
  atomic energy  EATOM  =     15331.71128874
  ---------------------------------------------------
  free energy    TOTEN  =      -371.84910100 eV

  energy without entropy =     -371.84910100  energy(sigma->0) =     -371.84910100


--------------------------------------------------------------------------------------------------------




----------------------------------------- Iteration    1(  13)  ---------------------------------------


    POTLOK:  cpu time    0.06: real time    0.06
    SETDIJ:  cpu time    0.01: real time    0.01
     EDDAV:  cpu time    7.57: real time    7.58
 BZINTS: Fermi energy: -0.022938;228.000000 electrons
         Band energy:***********;  BLOECHL correction: -0.034999
       DOS:  cpu time    0.04: real time    0.04
    CHARGE:  cpu time    0.17: real time    0.17
    MIXING:  cpu time    0.00: real time    0.00
    --------------------------------------------
      LOOP:  cpu time    7.85: real time    7.94

 eigenvalue-minimisations  : 15296
 total energy-change (2. order) : 0.4047105E+01  (-0.1483484E+02)
 number of electron     228.0000199 magnetization       0.2323040
 augmentation part       55.6741098 magnetization       0.7853684

 Broyden mixing:
  rms(total) = 0.13195E+02    rms(broyden)= 0.13195E+02
  rms(prec ) = 0.16526E+02
  weight for this iteration     100.00

 eigenvalues of (default mixing * dielectric matrix)
  average eigenvalue GAMMA=   0.2137
  0.4401  0.4401  0.1527  0.1527  0.1493  0.1493  0.1127  0.1127

 Free energy of the ion-electron system (eV)
  ---------------------------------------------------
  alpha Z        PSCENC =       681.33398086
  Ewald energy   TEWEN  =     65762.76963288
  -1/2 Hartree   DENC   =    -81099.93498180
  -exchange  EXHF       =         0.00000000
  -V(xc)+E(xc)   XCENC  =       557.66295090
  PAW double counting   =     15926.48489813   -15786.60590874
  entropy T*S    EENTRO =         0.00000000
  eigenvalues    EBANDS =     -1741.22385660
  atomic energy  EATOM  =     15331.71128874
  ---------------------------------------------------
  free energy    TOTEN  =      -367.80199562 eV

  energy without entropy =     -367.80199562  energy(sigma->0) =     -367.80199562


--------------------------------------------------------------------------------------------------------




----------------------------------------- Iteration    1(  14)  ---------------------------------------


    POTLOK:  cpu time    0.06: real time    0.06
    SETDIJ:  cpu time    0.01: real time    0.01
     EDDAV:  cpu time    7.75: real time    7.75
 BZINTS: Fermi energy:  1.715831;228.000000 electrons
         Band energy:***********;  BLOECHL correction: -0.027157
       DOS:  cpu time    0.04: real time    0.04
    CHARGE:  cpu time    0.17: real time    0.17
    MIXING:  cpu time    0.00: real time    0.00
    --------------------------------------------
      LOOP:  cpu time    8.03: real time    8.12

 eigenvalue-minimisations  : 15736
 total energy-change (2. order) : 0.1401579E+02  (-0.1186104E+03)
 number of electron     228.0000280 magnetization       0.2380200
 augmentation part       53.5954215 magnetization       0.1331710

 Broyden mixing:
  rms(total) = 0.12396E+02    rms(broyden)= 0.12395E+02
  rms(prec ) = 0.14363E+02
  weight for this iteration     100.00

 eigenvalues of (default mixing * dielectric matrix)
  average eigenvalue GAMMA=   0.2242
  0.5344  0.5344  0.1529  0.1529  0.1671  0.1671  0.1131  0.1131  0.0834

 Free energy of the ion-electron system (eV)
  ---------------------------------------------------
  alpha Z        PSCENC =       681.33398086
  Ewald energy   TEWEN  =     65762.76963288
  -1/2 Hartree   DENC   =    -81535.93679202
  -exchange  EXHF       =         0.00000000
  -V(xc)+E(xc)   XCENC  =       555.33687953
  PAW double counting   =     16131.57119076   -15992.99230534
  entropy T*S    EENTRO =         0.00000000
  eigenvalues    EBANDS =     -1287.58008413
  atomic energy  EATOM  =     15331.71128874
  ---------------------------------------------------
  free energy    TOTEN  =      -353.78620872 eV

  energy without entropy =     -353.78620872  energy(sigma->0) =     -353.78620872


--------------------------------------------------------------------------------------------------------




----------------------------------------- Iteration    1(  15)  ---------------------------------------


    POTLOK:  cpu time    0.06: real time    0.06
    SETDIJ:  cpu time    0.01: real time    0.01
     EDDAV:  cpu time    6.95: real time    6.96
 BZINTS: Fermi energy:  1.232421;228.000000 electrons
         Band energy:***********;  BLOECHL correction: -0.050139
       DOS:  cpu time    0.04: real time    0.04
    CHARGE:  cpu time    0.17: real time    0.17
    MIXING:  cpu time    0.00: real time    0.00
    --------------------------------------------
      LOOP:  cpu time    7.23: real time    7.44

 eigenvalue-minimisations  : 13808
 total energy-change (2. order) : 0.3305510E+02  (-0.2083826E+02)
 number of electron     228.0000310 magnetization       0.2372249
 augmentation part       51.4178904 magnetization       0.2958720

 Broyden mixing:
  rms(total) = 0.91778E+01    rms(broyden)= 0.91775E+01
  rms(prec ) = 0.10827E+02
  weight for this iteration     100.00

 eigenvalues of (default mixing * dielectric matrix)
  average eigenvalue GAMMA=   0.2382
  0.5744  0.5744  0.1528  0.1528  0.2511  0.1771  0.1771  0.1120  0.1120  0.0983

 Free energy of the ion-electron system (eV)
  ---------------------------------------------------
  alpha Z        PSCENC =       681.33398086
  Ewald energy   TEWEN  =     65762.76963288
  -1/2 Hartree   DENC   =    -81439.72580463
  -exchange  EXHF       =         0.00000000
  -V(xc)+E(xc)   XCENC  =       553.75294080
  PAW double counting   =     16455.81149147   -16318.50581606
  entropy T*S    EENTRO =         0.00000000
  eigenvalues    EBANDS =     -1347.87882495
  atomic energy  EATOM  =     15331.71128874
  ---------------------------------------------------
  free energy    TOTEN  =      -320.73111088 eV

  energy without entropy =     -320.73111088  energy(sigma->0) =     -320.73111088


--------------------------------------------------------------------------------------------------------




----------------------------------------- Iteration    1(  16)  ---------------------------------------


    POTLOK:  cpu time    0.06: real time    0.06
    SETDIJ:  cpu time    0.01: real time    0.01
     EDDAV:  cpu time    7.54: real time    7.55
 BZINTS: Fermi energy:  1.008070;228.000000 electrons
         Band energy:***********;  BLOECHL correction: -0.039485
       DOS:  cpu time    0.04: real time    0.04
    CHARGE:  cpu time    0.17: real time    0.17
    MIXING:  cpu time    0.00: real time    0.00
    --------------------------------------------
      LOOP:  cpu time    7.82: real time    7.92

 eigenvalue-minimisations  : 15256
 total energy-change (2. order) : 0.1450777E+02  (-0.7632331E+01)
 number of electron     228.0000275 magnetization       0.2073847
 augmentation part       51.9082942 magnetization       0.9571649

 Broyden mixing:
  rms(total) = 0.80202E+01    rms(broyden)= 0.80200E+01
  rms(prec ) = 0.92485E+01
  weight for this iteration     100.00

 eigenvalues of (default mixing * dielectric matrix)
  average eigenvalue GAMMA=   0.2527
  0.6268  0.6268  0.1528  0.1528  0.3644  0.1905  0.1905  0.1132  0.1132  0.1504
  0.0986

 Free energy of the ion-electron system (eV)
  ---------------------------------------------------
  alpha Z        PSCENC =       681.33398086
  Ewald energy   TEWEN  =     65762.76963288
  -1/2 Hartree   DENC   =    -81380.94324323
  -exchange  EXHF       =         0.00000000
  -V(xc)+E(xc)   XCENC  =       552.89530091
  PAW double counting   =     16647.79803474   -16510.80842393
  entropy T*S    EENTRO =         0.00000000
  eigenvalues    EBANDS =     -1390.97990849
  atomic energy  EATOM  =     15331.71128874
  ---------------------------------------------------
  free energy    TOTEN  =      -306.22333751 eV

  energy without entropy =     -306.22333751  energy(sigma->0) =     -306.22333751


--------------------------------------------------------------------------------------------------------




----------------------------------------- Iteration    1(  17)  ---------------------------------------


    POTLOK:  cpu time    0.06: real time    0.06
    SETDIJ:  cpu time    0.01: real time    0.01
     EDDAV:  cpu time    7.62: real time    7.62
 BZINTS: Fermi energy:  0.673976;228.000000 electrons
         Band energy:***********;  BLOECHL correction: -0.035483
       DOS:  cpu time    0.04: real time    0.04
    CHARGE:  cpu time    0.17: real time    0.17
    MIXING:  cpu time    0.00: real time    0.00
    --------------------------------------------
      LOOP:  cpu time    7.90: real time    7.99

 eigenvalue-minimisations  : 15488
 total energy-change (2. order) : 0.2382641E+01  (-0.9882682E+01)
 number of electron     228.0000287 magnetization       0.2152385
 augmentation part       52.3810948 magnetization      -0.2057040

 Broyden mixing:
  rms(total) = 0.70025E+01    rms(broyden)= 0.70019E+01
  rms(prec ) = 0.75003E+01
  weight for this iteration     100.00

 eigenvalues of (default mixing * dielectric matrix)
  average eigenvalue GAMMA=   0.2556
  0.6548  0.6548  0.1528  0.1528  0.3246  0.3246  0.1977  0.1977  0.1130  0.1130
  0.0988  0.0822

 Free energy of the ion-electron system (eV)
  ---------------------------------------------------
  alpha Z        PSCENC =       681.33398086
  Ewald energy   TEWEN  =     65762.76963288
  -1/2 Hartree   DENC   =    -81327.45755785
  -exchange  EXHF       =         0.00000000
  -V(xc)+E(xc)   XCENC  =       552.58580386
  PAW double counting   =     16680.28337474   -16543.76338785
  entropy T*S    EENTRO =         0.00000000
  eigenvalues    EBANDS =     -1441.30383178
  atomic energy  EATOM  =     15331.71128874
  ---------------------------------------------------
  free energy    TOTEN  =      -303.84069639 eV

  energy without entropy =     -303.84069639  energy(sigma->0) =     -303.84069639


--------------------------------------------------------------------------------------------------------




----------------------------------------- Iteration    1(  18)  ---------------------------------------


    POTLOK:  cpu time    0.06: real time    0.06
    SETDIJ:  cpu time    0.01: real time    0.01
     EDDAV:  cpu time    7.44: real time    7.45
 BZINTS: Fermi energy:  0.487218;228.000000 electrons
         Band energy:***********;  BLOECHL correction: -0.027810
       DOS:  cpu time    0.04: real time    0.04
    CHARGE:  cpu time    0.18: real time    0.18
    MIXING:  cpu time    0.00: real time    0.00
    --------------------------------------------
      LOOP:  cpu time    7.72: real time    7.82

 eigenvalue-minimisations  : 14960
 total energy-change (2. order) : 0.3555350E+01  (-0.7838374E+01)
 number of electron     228.0000245 magnetization       0.2061792
 augmentation part       52.5856892 magnetization       0.2961127

 Broyden mixing:
  rms(total) = 0.62054E+01    rms(broyden)= 0.62050E+01
  rms(prec ) = 0.67348E+01
  weight for this iteration     100.00

 eigenvalues of (default mixing * dielectric matrix)
  average eigenvalue GAMMA=   0.2570
  0.7433  0.7433  0.1528  0.1528  0.2783  0.2783  0.2158  0.2158  0.1124  0.1124
  0.1493  0.0965  0.0904

 Free energy of the ion-electron system (eV)
  ---------------------------------------------------
  alpha Z        PSCENC =       681.33398086
  Ewald energy   TEWEN  =     65762.76963288
  -1/2 Hartree   DENC   =    -81308.82166664
  -exchange  EXHF       =         0.00000000
  -V(xc)+E(xc)   XCENC  =       552.20787802
  PAW double counting   =     16822.61633892   -16686.50553960
  entropy T*S    EENTRO =         0.00000000
  eigenvalues    EBANDS =     -1455.59725915
  atomic energy  EATOM  =     15331.71128874
  ---------------------------------------------------
  free energy    TOTEN  =      -300.28534596 eV

  energy without entropy =     -300.28534596  energy(sigma->0) =     -300.28534596


--------------------------------------------------------------------------------------------------------




----------------------------------------- Iteration    1(  19)  ---------------------------------------


    POTLOK:  cpu time    0.06: real time    0.06
    SETDIJ:  cpu time    0.01: real time    0.01
     EDDAV:  cpu time    7.41: real time    7.41
 BZINTS: Fermi energy:  0.417070;228.000000 electrons
         Band energy:***********;  BLOECHL correction: -0.051201
       DOS:  cpu time    0.04: real time    0.04
    CHARGE:  cpu time    0.17: real time    0.18
    MIXING:  cpu time    0.00: real time    0.00
    --------------------------------------------
      LOOP:  cpu time    7.69: real time    7.78

 eigenvalue-minimisations  : 14904
 total energy-change (2. order) : 0.3435982E+01  (-0.3336718E+01)
 number of electron     228.0000251 magnetization       0.2020136
 augmentation part       52.5366903 magnetization       0.2268893

 Broyden mixing:
  rms(total) = 0.52343E+01    rms(broyden)= 0.52340E+01
  rms(prec ) = 0.54283E+01
  weight for this iteration     100.00

 eigenvalues of (default mixing * dielectric matrix)
  average eigenvalue GAMMA=   0.2599
  0.7365  0.7365  0.1528  0.1528  0.3758  0.2910  0.2910  0.1947  0.1947  0.1126
  0.1126  0.1040  0.1004  0.0836

 Free energy of the ion-electron system (eV)
  ---------------------------------------------------
  alpha Z        PSCENC =       681.33398086
  Ewald energy   TEWEN  =     65762.76963288
  -1/2 Hartree   DENC   =    -81293.07071770
  -exchange  EXHF       =         0.00000000
  -V(xc)+E(xc)   XCENC  =       552.03645222
  PAW double counting   =     16907.71379342   -16772.23144625
  entropy T*S    EENTRO =         0.00000000
  eigenvalues    EBANDS =     -1467.11234852
  atomic energy  EATOM  =     15331.71128874
  ---------------------------------------------------
  free energy    TOTEN  =      -296.84936435 eV

  energy without entropy =     -296.84936435  energy(sigma->0) =     -296.84936435


--------------------------------------------------------------------------------------------------------




----------------------------------------- Iteration    1(  20)  ---------------------------------------


    POTLOK:  cpu time    0.06: real time    0.06
    SETDIJ:  cpu time    0.01: real time    0.01
     EDDAV:  cpu time    7.43: real time    7.43
 BZINTS: Fermi energy:  0.541327;228.000000 electrons
         Band energy:***********;  BLOECHL correction: -0.069803
       DOS:  cpu time    0.04: real time    0.04
    CHARGE:  cpu time    0.18: real time    0.18
    MIXING:  cpu time    0.00: real time    0.00
    --------------------------------------------
      LOOP:  cpu time    7.71: real time    7.92

 eigenvalue-minimisations  : 14984
 total energy-change (2. order) : 0.1456441E+01  (-0.1223519E+01)
 number of electron     228.0000270 magnetization       0.2033735
 augmentation part       52.2984520 magnetization       0.0543755

 Broyden mixing:
  rms(total) = 0.53515E+01    rms(broyden)= 0.53513E+01
  rms(prec ) = 0.54746E+01
  weight for this iteration     100.00

 eigenvalues of (default mixing * dielectric matrix)
  average eigenvalue GAMMA=   0.2518
  0.6336  0.6336  0.5445  0.1528  0.1528  0.3199  0.3199  0.1943  0.1943  0.1128
  0.1128  0.1110  0.1110  0.0971  0.0860

 Free energy of the ion-electron system (eV)
  ---------------------------------------------------
  alpha Z        PSCENC =       681.33398086
  Ewald energy   TEWEN  =     65762.76963288
  -1/2 Hartree   DENC   =    -81314.20829381
  -exchange  EXHF       =         0.00000000
  -V(xc)+E(xc)   XCENC  =       552.15311390
  PAW double counting   =     16952.67333553   -16817.15256300
  entropy T*S    EENTRO =         0.00000000
  eigenvalues    EBANDS =     -1444.67341862
  atomic energy  EATOM  =     15331.71128874
  ---------------------------------------------------
  free energy    TOTEN  =      -295.39292352 eV

  energy without entropy =     -295.39292352  energy(sigma->0) =     -295.39292352


--------------------------------------------------------------------------------------------------------




----------------------------------------- Iteration    1(  21)  ---------------------------------------


    POTLOK:  cpu time    0.06: real time    0.06
    SETDIJ:  cpu time    0.01: real time    0.01
     EDDAV:  cpu time    7.25: real time    7.25
 BZINTS: Fermi energy:  0.563183;228.000000 electrons
         Band energy:***********;  BLOECHL correction: -0.056164
       DOS:  cpu time    0.04: real time    0.04
    CHARGE:  cpu time    0.18: real time    0.18
    MIXING:  cpu time    0.00: real time    0.00
    --------------------------------------------
      LOOP:  cpu time    7.53: real time    7.63

 eigenvalue-minimisations  : 14504
 total energy-change (2. order) : 0.1196899E+01  (-0.1208842E+01)
 number of electron     228.0000261 magnetization       0.2225018
 augmentation part       52.1839508 magnetization      -0.2254795

 Broyden mixing:
  rms(total) = 0.49524E+01    rms(broyden)= 0.49522E+01
  rms(prec ) = 0.50244E+01
  weight for this iteration     100.00

 eigenvalues of (default mixing * dielectric matrix)
  average eigenvalue GAMMA=   0.2502
  0.7751  0.4728  0.4728  0.3898  0.3898  0.1528  0.1528  0.1968  0.1968  0.1984
  0.1127  0.1127  0.1256  0.0990  0.0846  0.0700

 Free energy of the ion-electron system (eV)
  ---------------------------------------------------
  alpha Z        PSCENC =       681.33398086
  Ewald energy   TEWEN  =     65762.76963288
  -1/2 Hartree   DENC   =    -81317.75136723
  -exchange  EXHF       =         0.00000000
  -V(xc)+E(xc)   XCENC  =       552.33330252
  PAW double counting   =     16976.38803499   -16840.90050251
  entropy T*S    EENTRO =         0.00000000
  eigenvalues    EBANDS =     -1440.08039482
  atomic energy  EATOM  =     15331.71128874
  ---------------------------------------------------
  free energy    TOTEN  =      -294.19602457 eV

  energy without entropy =     -294.19602457  energy(sigma->0) =     -294.19602457


--------------------------------------------------------------------------------------------------------




----------------------------------------- Iteration    1(  22)  ---------------------------------------


    POTLOK:  cpu time    0.06: real time    0.06
    SETDIJ:  cpu time    0.01: real time    0.01
     EDDAV:  cpu time    7.36: real time    7.36
 BZINTS: Fermi energy:  0.633500;228.000000 electrons
         Band energy:***********;  BLOECHL correction: -0.060276
       DOS:  cpu time    0.04: real time    0.04
    CHARGE:  cpu time    0.17: real time    0.17
    MIXING:  cpu time    0.00: real time    0.00
    --------------------------------------------
      LOOP:  cpu time    7.63: real time    7.72

 eigenvalue-minimisations  : 14848
 total energy-change (2. order) :-0.5102756E+00  (-0.9429985E+00)
 number of electron     228.0000261 magnetization       0.2504598
 augmentation part       52.1137975 magnetization      -0.0179338

 Broyden mixing:
  rms(total) = 0.51077E+01    rms(broyden)= 0.51076E+01
  rms(prec ) = 0.51834E+01
  weight for this iteration     100.00

 eigenvalues of (default mixing * dielectric matrix)
  average eigenvalue GAMMA=   0.2500
  0.8211  0.4991  0.4991  0.3923  0.3923  0.1528  0.1528  0.2025  0.2025  0.2030
  0.1715  0.1126  0.1126  0.0998  0.0926  0.0842  0.0598

 Free energy of the ion-electron system (eV)
  ---------------------------------------------------
  alpha Z        PSCENC =       681.33398086
  Ewald energy   TEWEN  =     65762.76963288
  -1/2 Hartree   DENC   =    -81322.01158505
  -exchange  EXHF       =         0.00000000
  -V(xc)+E(xc)   XCENC  =       552.74883063
  PAW double counting   =     17005.22100956   -16869.84846175
  entropy T*S    EENTRO =         0.00000000
  eigenvalues    EBANDS =     -1436.63099602
  atomic energy  EATOM  =     15331.71128874
  ---------------------------------------------------
  free energy    TOTEN  =      -294.70630015 eV

  energy without entropy =     -294.70630015  energy(sigma->0) =     -294.70630015


--------------------------------------------------------------------------------------------------------




----------------------------------------- Iteration    1(  23)  ---------------------------------------


    POTLOK:  cpu time    0.06: real time    0.06
    SETDIJ:  cpu time    0.01: real time    0.01
     EDDAV:  cpu time    7.35: real time    7.36
 BZINTS: Fermi energy:  0.601811;228.000000 electrons
         Band energy:***********;  BLOECHL correction: -0.055521
       DOS:  cpu time    0.04: real time    0.04
    CHARGE:  cpu time    0.17: real time    0.18
    MIXING:  cpu time    0.00: real time    0.00
    --------------------------------------------
      LOOP:  cpu time    7.63: real time    7.73

 eigenvalue-minimisations  : 14832
 total energy-change (2. order) : 0.5801622E+00  (-0.5621794E+00)
 number of electron     228.0000266 magnetization       0.2894643
 augmentation part       52.1555878 magnetization      -0.4328244

 Broyden mixing:
  rms(total) = 0.49318E+01    rms(broyden)= 0.49316E+01
  rms(prec ) = 0.49874E+01
  weight for this iteration     100.00

 eigenvalues of (default mixing * dielectric matrix)
  average eigenvalue GAMMA=   0.2630
  0.8664  0.5931  0.5931  0.1528  0.1528  0.3653  0.3653  0.2864  0.2864  0.2034
  0.2034  0.1127  0.1127  0.1119  0.0988  0.0870  0.0870  0.0550

 Free energy of the ion-electron system (eV)
  ---------------------------------------------------
  alpha Z        PSCENC =       681.33398086
  Ewald energy   TEWEN  =     65762.76963288
  -1/2 Hartree   DENC   =    -81327.50615627
  -exchange  EXHF       =         0.00000000
  -V(xc)+E(xc)   XCENC  =       553.44164159
  PAW double counting   =     17025.99239636   -16890.74164093
  entropy T*S    EENTRO =         0.00000000
  eigenvalues    EBANDS =     -1431.12728113
  atomic energy  EATOM  =     15331.71128874
  ---------------------------------------------------
  free energy    TOTEN  =      -294.12613791 eV

  energy without entropy =     -294.12613791  energy(sigma->0) =     -294.12613791


--------------------------------------------------------------------------------------------------------




----------------------------------------- Iteration    1(  24)  ---------------------------------------


    POTLOK:  cpu time    0.06: real time    0.06
    SETDIJ:  cpu time    0.01: real time    0.01
     EDDAV:  cpu time    7.45: real time    7.46
 BZINTS: Fermi energy:  0.557057;228.000000 electrons
         Band energy:***********;  BLOECHL correction: -0.039182
       DOS:  cpu time    0.04: real time    0.04
    CHARGE:  cpu time    0.17: real time    0.17
    MIXING:  cpu time    0.00: real time    0.00
    --------------------------------------------
      LOOP:  cpu time    7.73: real time    7.82

 eigenvalue-minimisations  : 15088
 total energy-change (2. order) :-0.1459223E-02  (-0.3152010E+00)
 number of electron     228.0000266 magnetization       0.3402214
 augmentation part       52.2502857 magnetization      -0.2947535

 Broyden mixing:
  rms(total) = 0.48705E+01    rms(broyden)= 0.48705E+01
  rms(prec ) = 0.49033E+01
  weight for this iteration     100.00

 eigenvalues of (default mixing * dielectric matrix)
  average eigenvalue GAMMA=   0.2803
  0.8791  0.7703  0.7703  0.1528  0.1528  0.3737  0.3737  0.3343  0.3343  0.2005
  0.2005  0.1127  0.1127  0.1168  0.1168  0.1008  0.0846  0.0846  0.0552

 Free energy of the ion-electron system (eV)
  ---------------------------------------------------
  alpha Z        PSCENC =       681.33398086
  Ewald energy   TEWEN  =     65762.76963288
  -1/2 Hartree   DENC   =    -81326.22636199
  -exchange  EXHF       =         0.00000000
  -V(xc)+E(xc)   XCENC  =       553.98462900
  PAW double counting   =     17038.08775396   -16902.89982876
  entropy T*S    EENTRO =         0.00000000
  eigenvalues    EBANDS =     -1432.88869183
  atomic energy  EATOM  =     15331.71128874
  ---------------------------------------------------
  free energy    TOTEN  =      -294.12759713 eV

  energy without entropy =     -294.12759713  energy(sigma->0) =     -294.12759713


--------------------------------------------------------------------------------------------------------




----------------------------------------- Iteration    1(  25)  ---------------------------------------


    POTLOK:  cpu time    0.06: real time    0.06
    SETDIJ:  cpu time    0.01: real time    0.01
     EDDAV:  cpu time    7.47: real time    7.47
 BZINTS: Fermi energy:  0.560476;228.000000 electrons
         Band energy:***********;  BLOECHL correction: -0.039479
       DOS:  cpu time    0.03: real time    0.03
    CHARGE:  cpu time    0.18: real time    0.18
    MIXING:  cpu time    0.00: real time    0.00
    --------------------------------------------
      LOOP:  cpu time    7.74: real time    7.83

 eigenvalue-minimisations  : 15064
 total energy-change (2. order) :-0.5771890E+00  (-0.5161834E+00)
 number of electron     228.0000255 magnetization       0.3949421
 augmentation part       52.3034941 magnetization      -0.4615535

 Broyden mixing:
  rms(total) = 0.50311E+01    rms(broyden)= 0.50310E+01
  rms(prec ) = 0.50966E+01
  weight for this iteration     100.00

 eigenvalues of (default mixing * dielectric matrix)
  average eigenvalue GAMMA=   0.2820
  0.8693  0.8693  0.8605  0.3876  0.3876  0.3443  0.3443  0.1528  0.1528  0.2003
  0.2003  0.1127  0.1127  0.1371  0.1260  0.1003  0.0861  0.0861  0.0552  0.0552

 Free energy of the ion-electron system (eV)
  ---------------------------------------------------
  alpha Z        PSCENC =       681.33398086
  Ewald energy   TEWEN  =     65762.76963288
  -1/2 Hartree   DENC   =    -81327.27890288
  -exchange  EXHF       =         0.00000000
  -V(xc)+E(xc)   XCENC  =       554.66632729
  PAW double counting   =     17059.11416497   -16924.15121538
  entropy T*S    EENTRO =         0.00000000
  eigenvalues    EBANDS =     -1432.87006256
  atomic energy  EATOM  =     15331.71128874
  ---------------------------------------------------
  free energy    TOTEN  =      -294.70478608 eV

  energy without entropy =     -294.70478608  energy(sigma->0) =     -294.70478608


--------------------------------------------------------------------------------------------------------




----------------------------------------- Iteration    1(  26)  ---------------------------------------


    POTLOK:  cpu time    0.06: real time    0.06
    SETDIJ:  cpu time    0.01: real time    0.01
     EDDAV:  cpu time    7.43: real time    7.44
 BZINTS: Fermi energy:  0.573274;228.000000 electrons
         Band energy:***********;  BLOECHL correction: -0.040822
       DOS:  cpu time    0.04: real time    0.04
    CHARGE:  cpu time    0.17: real time    0.17
    MIXING:  cpu time    0.00: real time    0.00
    --------------------------------------------
      LOOP:  cpu time    7.71: real time    7.91

 eigenvalue-minimisations  : 15016
 total energy-change (2. order) : 0.3682078E+00  (-0.1501572E+00)
 number of electron     228.0000262 magnetization       0.4672783
 augmentation part       52.2763629 magnetization      -0.1272429

 Broyden mixing:
  rms(total) = 0.49038E+01    rms(broyden)= 0.49038E+01
  rms(prec ) = 0.49437E+01
  weight for this iteration     100.00

 eigenvalues of (default mixing * dielectric matrix)
  average eigenvalue GAMMA=   0.2933
  1.0189  1.0189  0.8611  0.1528  0.1528  0.3687  0.3687  0.3629  0.3629  0.2012
  0.2012  0.1822  0.1822  0.1127  0.1127  0.1118  0.0982  0.0859  0.0859  0.0605
  0.0573

 Free energy of the ion-electron system (eV)
  ---------------------------------------------------
  alpha Z        PSCENC =       681.33398086
  Ewald energy   TEWEN  =     65762.76963288
  -1/2 Hartree   DENC   =    -81329.17005365
  -exchange  EXHF       =         0.00000000
  -V(xc)+E(xc)   XCENC  =       555.41307349
  PAW double counting   =     17066.35183863   -16931.61424655
  entropy T*S    EENTRO =         0.00000000
  eigenvalues    EBANDS =     -1431.13209267
  atomic energy  EATOM  =     15331.71128874
  ---------------------------------------------------
  free energy    TOTEN  =      -294.33657827 eV

  energy without entropy =     -294.33657827  energy(sigma->0) =     -294.33657827


--------------------------------------------------------------------------------------------------------




----------------------------------------- Iteration    1(  27)  ---------------------------------------


    POTLOK:  cpu time    0.06: real time    0.06
    SETDIJ:  cpu time    0.01: real time    0.01
     EDDAV:  cpu time    7.48: real time    7.48
[...]
      5     -18.4661      1.00000
      6     -18.3424      1.00000
      7     -18.2920      1.00000
      8     -18.2198      1.00000
      9     -18.1034      1.00000
     10     -17.7748      1.00000
     11     -17.6501      1.00000
     12     -17.5855      1.00000
     13     -17.5454      1.00000
     14     -17.4027      1.00000
     15     -17.3876      1.00000
     16     -17.1573      1.00000
     17     -17.0544      1.00000
     18     -16.9089      1.00000
     19     -16.8207      1.00000
     20     -16.8148      1.00000
     21     -16.7354      1.00000
     22     -16.4677      1.00000
     23     -16.3485      1.00000
     24     -16.3015      1.00000
     25     -10.8338      1.00000
     26      -8.6294      1.00000
     27      -7.5062      1.00000
     28      -7.3025      1.00000
     29      -7.0886      1.00000
     30      -6.8203      1.00000
     31      -6.7335      1.00000
     32      -6.6471      1.00000
     33      -6.4060      1.00000
     34      -6.2903      1.00000
     35      -6.0076      1.00000
     36      -5.7615      1.00000
     37      -5.7167      1.00000
     38      -5.6474      1.00000
     39      -5.4963      1.00000
     40      -5.4734      1.00000
     41      -5.4478      1.00000
     42      -5.3431      1.00000
     43      -5.2861      1.00000
     44      -5.2412      1.00000
     45      -5.1772      1.00000
     46      -5.0885      1.00000
     47      -5.0686      1.00000
     48      -4.9147      1.00000
     49      -4.9095      1.00000
     50      -4.8194      1.00000
     51      -4.7812      1.00000
     52      -4.7092      1.00000
     53      -4.6712      1.00000
     54      -4.6117      1.00000
     55      -4.5472      1.00000
     56      -4.4575      1.00000
     57      -4.3618      1.00000
     58      -4.2767      1.00000
     59      -4.2266      1.00000
     60      -4.1968      1.00000
     61      -4.0939      1.00000
     62      -4.0549      1.00000
     63      -3.9762      1.00000
     64      -3.9406      1.00000
     65      -3.8786      1.00000
     66      -3.8311      1.00000
     67      -3.7543      1.00000
     68      -3.6833      1.00000
     69      -3.6481      1.00000
     70      -3.4325      1.00000
     71      -3.3887      1.00000
     72      -3.2884      1.00000
     73      -3.2522      1.00000
     74      -3.1650      1.00000
     75      -3.1243      1.00000
     76      -3.0402      1.00000
     77      -2.9740      1.00000
     78      -2.9218      1.00000
     79      -2.8919      1.00000
     80      -2.8057      1.00000
     81      -2.7383      1.00000
     82      -2.6779      1.00000
     83      -2.5961      1.00000
     84      -2.5129      1.00000
     85      -2.4899      1.00000
     86      -2.4350      1.00000
     87      -2.2434      1.00000
     88      -2.2127      1.00000
     89      -2.1181      1.00000
     90      -2.0997      1.00000
     91      -2.0446      1.00000
     92      -1.9788      1.00000
     93      -1.7999      1.00000
     94      -1.7559      1.00000
     95      -1.6783      1.00000
     96      -1.6443      1.00000
     97      -1.4091      1.00000
     98      -1.2786      1.00000
     99      -1.2130      1.00000
    100      -1.1029      1.00000
    101      -0.8358      1.00000
    102      -0.6958      1.00000
    103      -0.5295      1.00000
    104      -0.4587      1.00000
    105      -0.4400      1.00000
    106      -0.4018      1.00000
    107      -0.2112      1.00000
    108      -0.0961      1.00000
    109      -0.0783      1.00000
    110       0.0618      1.00000
    111       0.0744      1.00000
    112       0.0861      1.00000
    113       0.1113      1.00000
    114       0.1455      1.00000
    115       0.4170      1.00000
    116       0.4315      1.00000
    117       0.5201      1.00000
    118       0.5495      1.11775
    119       0.7769      0.00000
    120       0.9562      0.00000
    121       1.0440      0.00000
    122       1.1534      0.00000
    123       1.2210      0.00000
    124       1.6377      0.00000
    125       1.8292      0.00000
    126       1.8568      0.00000
    127       1.8823      0.00000
    128       1.9514      0.00000
    129       2.0757      0.00000
    130       2.3531      0.00000
    131       2.4252      0.00000
    132       2.4662      0.00000
    133       2.5466      0.00000
    134       2.5848      0.00000
    135       2.7193      0.00000
    136       2.9467      0.00000


--------------------------------------------------------------------------------------------------------


 soft charge-density along one line, spin component           1
         0         1         2         3         4         5         6         7         8         9
 total charge-density along one line
 
 soft charge-density along one line, spin component           2
         0         1         2         3         4         5         6         7         8         9
 total charge-density along one line
 
 pseudopotential strength for first ion, spin component:           1
 12.877 -15.726   0.000   0.005  -0.000  -0.000  -0.006   0.000
-15.726  19.230  -0.000  -0.007   0.000   0.000   0.008  -0.000
  0.000  -0.000  -9.248   0.000  -0.000  11.267  -0.000   0.000
  0.005  -0.007   0.000  -9.373  -0.000  -0.000  11.436   0.000
 -0.000   0.000  -0.000  -0.000  -9.303   0.000   0.000  11.342
 -0.000   0.000  11.267  -0.000   0.000 -13.609   0.000  -0.000
 -0.006   0.008  -0.000  11.436   0.000   0.000 -13.838  -0.000
  0.000  -0.000   0.000   0.000  11.342  -0.000  -0.000 -13.711
 pseudopotential strength for first ion, spin component:           2
 12.869 -15.715   0.000  -0.000  -0.000  -0.000   0.000   0.000
-15.715  19.216  -0.000  -0.000   0.000   0.000  -0.000  -0.000
  0.000  -0.000  -9.262   0.000  -0.000  11.286  -0.000   0.000
 -0.000  -0.000   0.000  -9.357  -0.000  -0.000  11.413   0.000
 -0.000   0.000  -0.000  -0.000  -9.278   0.000   0.000  11.306
 -0.000   0.000  11.286  -0.000   0.000 -13.636   0.000  -0.000
  0.000  -0.000  -0.000  11.413   0.000   0.000 -13.806  -0.000
  0.000  -0.000   0.000   0.000  11.306  -0.000  -0.000 -13.661
 total augmentation occupancy for first ion, spin component:           1
  2.565   0.330   0.000   0.043   0.000   0.000   0.018   0.000
  0.330   0.060   0.000   0.014   0.000   0.000   0.007   0.000
  0.000   0.000   1.823   0.000   0.000   0.152   0.000   0.000
  0.043   0.014   0.000   1.987   0.000   0.000   0.268   0.000
  0.000   0.000   0.000   0.000   2.012   0.000   0.000   0.228
  0.000   0.000   0.152   0.000   0.000   0.018   0.000   0.000
  0.018   0.007   0.000   0.268   0.000   0.000   0.039   0.000
  0.000   0.000   0.000   0.000   0.228   0.000   0.000   0.030
 total augmentation occupancy for first ion, spin component:           2
  0.009   0.008   0.000  -0.003   0.000   0.000   0.001   0.000
  0.008   0.004   0.000   0.008   0.000   0.000   0.002   0.000
  0.000   0.000  -0.035   0.000   0.000   0.003   0.000   0.000
 -0.003   0.008   0.000  -0.016   0.000   0.000   0.003   0.000
  0.000   0.000   0.000   0.000  -0.049   0.000   0.000   0.005
  0.000   0.000   0.003   0.000   0.000   0.001   0.000   0.000
  0.001   0.002   0.000   0.003   0.000   0.000   0.002   0.000
  0.000   0.000   0.000   0.000   0.005   0.000   0.000   0.002


------------------------ aborting loop because EDIFF is reached ----------------------------------------


    CHARGE:  cpu time    0.17: real time    0.17
    FORLOC:  cpu time    0.00: real time    0.00
    FORNL :  cpu time    1.88: real time    1.88
    STRESS:  cpu time    1.72: real time    1.72
    FORCOR:  cpu time    0.05: real time    0.06
    FORHAR:  cpu time    0.01: real time    0.01
    MIXING:  cpu time    0.00: real time    0.00

  FORCE on cell =-STRESS in cart. coord.  units (eV):
  Direction    XX          YY          ZZ          XY          YZ          ZX
  --------------------------------------------------------------------------------------
  Alpha Z   681.33398   681.33398   681.33398
  Ewald   75603.26618 74205.03766-84045.57944    -0.00000     0.00000     0.00000
  Hartree 83956.89433 83252.38985-81272.93970    -0.00000    -0.00000    -0.00000
  E(xc)   -1116.86368 -1117.70304 -1115.69932     0.00000     0.00000    -0.00000
  Local  ************************160626.56107    -0.00000    -0.00000     0.00000
  n-local  -344.77424  -340.80112  -349.35914     1.22497     0.00454    -0.00636
  augment   513.47071   516.49498   522.75613     0.00000    -0.00000    -0.00000
  Kinetic  3897.46024  3996.11031  3994.01570    -2.05493    -0.00248     0.00491
  Fock        0.00000     0.00000     0.00000     0.00000     0.00000     0.00000
  -------------------------------------------------------------------------------------
  Total    2141.89745  2036.36712  -958.91072     0.00000     0.00000     0.00000
  in kB    6826.49978  6490.16120 -3056.17051     0.00000     0.00000     0.00000
  external pressure =     3420.16 kB  Pullay stress =        0.00 kB


 VOLUME and BASIS-vectors are now :
 -----------------------------------------------------------------------------
  energy-cutoff  :      520.00
  volume of cell :      502.70
      direct lattice vectors                 reciprocal lattice vectors
     2.841110000  0.000000000  0.000000000     0.351975108  0.000000000  0.000000000
     0.000000000  6.191920000  0.000000000     0.000000000  0.161500795  0.000000000
     0.000000000  0.000000000 28.575760000     0.000000000  0.000000000  0.034994695

  length of vectors
     2.841110000  6.191920000 28.575760000     0.351975108  0.161500795  0.034994695


 FORCES acting on ions
    electron-ion (+dipol)            ewald-force                    non-local-force                 convergence-correction
 -----------------------------------------------------------------------------------------------
   0.201E-14 0.624E-12 0.174E+04   0.153E-14 -.142E-13 -.172E+04   0.363E-21 -.522E-21 -.348E+00   -.225E-11 0.675E-12 -.208E+02
   0.472E-14 0.936E-12 0.518E+03   -.225E-13 0.178E-13 -.841E+02   -.705E-19 -.944E-20 0.799E+01   -.659E-12 0.111E-10 -.441E+03
   -.279E-14 0.670E-12 -.164E+04   -.116E-13 -.126E-14 0.156E+04   0.349E-20 -.362E-21 0.257E+01   0.323E-11 0.156E-10 0.811E+02
   0.990E-13 0.706E+02 0.206E+04   -.475E-13 -.702E+02 -.213E+04   -.103E-16 0.311E+01 -.585E+01   -.606E-11 -.455E+01 0.764E+02
   0.931E-13 -.706E+02 0.206E+04   0.580E-13 0.702E+02 -.213E+04   0.100E-16 -.311E+01 -.585E+01   0.576E-11 0.455E+01 0.764E+02
   0.106E-12 0.117E+02 0.835E+03   -.495E-13 -.422E+02 -.539E+03   0.554E-17 0.363E+01 0.528E+00   0.787E-11 0.264E+02 -.296E+03
   0.828E-13 -.117E+02 0.835E+03   0.704E-13 0.422E+02 -.539E+03   -.592E-17 -.363E+01 0.528E+00   -.104E-10 -.264E+02 -.296E+03
   0.813E-13 0.532E+02 -.105E+04   0.224E-14 -.458E+02 0.110E+04   0.381E-16 0.401E+01 0.442E-03   0.540E-11 -.117E+02 -.483E+02
   0.701E-13 -.532E+02 -.105E+04   -.299E-13 0.458E+02 0.110E+04   -.446E-16 -.401E+01 0.442E-03   -.281E-11 0.117E+02 -.483E+02
   0.162E-14 0.103E-11 0.109E+04   -.566E-15 -.248E-14 -.995E+03   -.221E-19 -.999E-20 -.690E+01   -.363E-11 -.500E-12 -.861E+02
   -.423E-14 0.716E-12 -.393E+03   -.714E-14 0.160E-13 0.645E+03   0.633E-21 0.411E-21 -.194E+01   -.147E-10 -.459E-12 -.249E+03
   -.196E-14 0.661E-12 -.248E+04   -.873E-14 -.144E-14 0.233E+04   -.389E-19 0.150E-19 -.267E+02   -.218E-11 0.615E-11 0.176E+03
   0.497E-14 0.147E-12 0.104E+04   0.236E-14 -.211E-14 -.904E+03   0.304E-20 -.509E-21 0.129E+01   -.383E-11 -.146E-10 -.136E+03
   -.215E-14 -.202E-12 -.649E+03   -.179E-13 -.225E-13 0.745E+03   0.188E-19 0.281E-19 0.746E+01   0.607E-11 0.171E-10 -.101E+03
   0.675E-14 0.716E-12 -.247E+04   -.399E-14 0.159E-14 0.236E+04   0.316E-20 0.268E-20 -.326E+02   0.577E-11 -.115E-10 0.141E+03
   0.951E-13 0.255E+02 0.143E+04   -.309E-13 -.393E+02 -.136E+04   0.230E-16 0.360E+01 -.713E+00   0.228E-11 0.103E+02 -.653E+02
   0.884E-13 -.255E+02 0.143E+04   0.296E-13 0.393E+02 -.136E+04   -.243E-16 -.360E+01 -.713E+00   -.830E-12 -.103E+02 -.653E+02
   0.107E-12 0.141E+03 0.552E+02   0.130E-13 -.419E+02 0.278E+03   0.246E-17 -.239E+01 0.235E+01   0.129E-10 -.989E+02 -.335E+03
   0.896E-13 -.141E+03 0.552E+02   -.101E-13 0.419E+02 0.278E+03   0.185E-17 0.239E+01 0.235E+01   -.101E-10 0.989E+02 -.335E+03
   0.926E-13 0.181E+01 -.200E+04   -.839E-14 -.637E+02 0.186E+04   -.165E-17 0.328E+01 0.469E+01   0.116E-11 0.577E+02 0.135E+03
   0.830E-13 -.181E+01 -.200E+04   -.155E-13 0.637E+02 0.186E+04   -.118E-16 -.328E+01 0.469E+01   -.365E-12 -.577E+02 0.135E+03
   0.154E-14 0.881E-12 0.185E+04   -.261E-13 -.766E-15 -.184E+04   -.291E-20 0.441E-20 -.992E+01   0.673E-11 -.109E-10 0.147E+01
   -.122E-13 -.409E-12 0.694E+03   -.806E-14 -.645E-14 -.172E+03   0.367E-21 0.281E-19 -.390E+01   -.472E-11 0.513E-11 -.518E+03
   -.225E-14 0.101E-11 -.157E+04   0.399E-14 0.544E-14 0.150E+04   0.242E-19 0.154E-19 -.136E+02   -.101E-10 -.331E-11 0.877E+02
   0.383E-13 0.214E-12 0.166E+04   -.159E-13 -.254E-13 -.158E+04   -.651E-20 0.307E-19 -.448E+00   0.792E-12 -.427E-11 -.743E+02
   0.397E-13 -.113E-12 0.662E+02   -.154E-14 0.244E-13 0.327E+03   -.147E-20 0.216E-20 0.102E+01   0.660E-11 0.801E-11 -.394E+03
   0.586E-13 0.706E-13 -.238E+04   0.196E-13 -.323E-14 0.224E+04   0.246E-19 -.331E-19 -.892E+00   0.390E-11 0.122E-10 0.140E+03
   -.546E-14 0.384E-12 0.245E+04   -.265E-14 0.377E-13 -.253E+04   0.648E-20 -.560E-21 -.384E+01   0.411E-11 -.955E-11 0.880E+02
   0.732E-14 0.888E-12 0.966E+03   0.613E-14 0.330E-13 -.629E+03   -.506E-20 0.332E-19 -.123E+00   -.697E-11 0.115E-10 -.337E+03
   0.147E-13 0.344E-14 -.121E+04   0.157E-13 -.651E-15 0.128E+04   -.916E-20 0.149E-19 0.247E+00   0.327E-11 0.102E-10 -.680E+02
   0.256E-13 -.336E-13 0.250E+04   0.192E-13 -.328E-13 -.257E+04   0.105E-19 0.282E-21 -.477E+01   -.821E-11 -.753E-11 0.905E+02
   0.568E-14 0.327E-12 0.991E+03   0.156E-13 -.314E-13 -.629E+03   0.360E-20 0.141E-19 0.503E+00   0.211E-11 -.607E-11 -.363E+03
   0.500E-13 -.755E-13 -.126E+04   0.314E-13 0.300E-16 0.129E+04   0.135E-20 0.100E-20 -.853E+00   0.382E-12 0.109E-10 -.329E+02
   0.411E-14 -.448E-13 0.167E+04   -.545E-14 0.250E-13 -.159E+04   -.200E-19 -.387E-21 -.431E+00   0.412E-13 -.181E-10 -.778E+02
   0.149E-13 0.119E-12 0.593E+02   -.219E-13 0.221E-14 0.328E+03   -.133E-19 -.129E-18 0.199E+01   -.774E-12 0.356E-10 -.388E+03
   0.113E-13 -.115E-14 -.238E+04   0.315E-13 0.156E-14 0.222E+04   -.570E-20 -.109E-20 0.296E+01   0.299E-11 -.956E-11 0.161E+03
 -----------------------------------------------------------------------------------------------
   0.135E-11 0.102E-10 0.347E+04   -.254E-13 0.713E-13 0.909E-12   -.177E-16 -.199E-19 -.792E+02   -.727E-11 0.214E-10 -.339E+04
 
 
 POSITION                                       TOTAL-FORCE (eV/Angst)
 -----------------------------------------------------------------------------------
      0.00000      3.09596      6.87844        -0.000000     -0.000000     -1.931108
      0.00000      3.09596     13.07036         0.000000     -0.000000      1.382264
      0.00000      3.09596     19.24021        -0.000000      0.000000      0.010948
      1.42056      1.87844      5.00000         0.000000     -1.045357     -1.543228
      1.42056      4.31348      5.00000         0.000000      1.045357     -1.543228
      1.42056      1.87844     11.19192        -0.000000     -0.524542     -0.157064
      1.42056      4.31348     11.19192        -0.000000      0.524542     -0.157064
      1.42056      1.88146     17.38441        -0.000000     -0.239913     -0.428588
      1.42056      4.31046     17.38441         0.000000      0.239913     -0.428588
      0.00000      3.09596      9.31348        -0.000000     -0.000000     -1.105076
      0.00000      3.09596     15.50351        -0.000000     -0.000000      0.609391
      0.00000      3.09596     21.61783        -0.000000      0.000000     -2.171317
      0.00000      0.00000      9.97440        -0.000000     -0.000000     -1.329684
      0.00000      0.00000     16.15223        -0.000000     -0.000000      2.162604
      0.00000      0.00000     22.29426         0.000000      0.000000     -0.180447
      1.42056      4.97440      8.09596         0.000000      0.132948     -0.278086
      1.42056      1.21752      8.09596        -0.000000     -0.132948     -0.278086
      1.42056      4.97444     14.28525        -0.000000     -2.049324      0.331323
      1.42056      1.21748     14.28525         0.000000      2.049324      0.331323
      1.42056      5.01196     20.43960         0.000000     -0.921819     -0.446971
      1.42056      1.17996     20.43960         0.000000      0.921819     -0.446971
      0.00000      0.00000      6.21752         0.000000     -0.000000     -3.267258
      0.00000      0.00000     12.40944         0.000000      0.000000     -0.088918
      0.00000      0.00000     18.57849        -0.000000     -0.000000     -0.255379
      1.42056      3.09596      8.09596         0.000000      0.000000     -0.057695
      1.42056      3.09596     14.28522         0.000000      0.000000      0.173640
      1.42056      3.09596     20.48859         0.000000     -0.000000     -0.441008
      0.00000      3.09596      5.00000         0.000000      0.000000      5.853739
      0.00000      3.09596     11.19192         0.000000     -0.000000     -1.161643
      0.00000      3.09596     17.38470         0.000000      0.000000      0.105176
      1.42056      0.00000      5.00000        -0.000000      0.000000      6.509216
      1.42056      0.00000     11.19192         0.000000     -0.000000      0.442476
      1.42056      0.00000     17.40833        -0.000000      0.000000     -1.488007
      0.00000      0.00000      8.09596         0.000000      0.000000      0.942350
      0.00000      0.00000     14.30557        -0.000000      0.000000      1.201851
      0.00000      0.00000     20.72624         0.000000      0.000000     -0.870885
 -----------------------------------------------------------------------------------
    total drift:                               -0.000000      0.000000      3.824127


--------------------------------------------------------------------------------------------------------



  FREE ENERGIE OF THE ION-ELECTRON SYSTEM (eV)
  ---------------------------------------------------
  free  energy   TOTEN  =      -314.14646639 eV

  energy  without entropy=     -314.14646639  energy(sigma->0) =     -314.14646639
 


--------------------------------------------------------------------------------------------------------


    POTLOK:  cpu time    0.07: real time    0.07


--------------------------------------------------------------------------------------------------------


     LOOP+:  cpu time  446.75: real time  454.84
    4ORBIT:  cpu time    0.00: real time    0.00
 BZINTS: Fermi energy:  0.671465;228.000000 electrons
         Band energy:***********;  BLOECHL correction: -0.024912

 total amount of memory used by VASP on root node    52160. kBytes
========================================================================

   base      :      30000. kBytes
   nonl-proj :       6658. kBytes
   fftplans  :       1048. kBytes
   grid      :       2776. kBytes
   one-center:        124. kBytes
   wavefun   :      11554. kBytes
 
  
  
 General timing and accounting informations for this job:
 ========================================================
  
                  Total CPU time used (sec):      454.511
                            User time (sec):      451.780
                          System time (sec):        2.731
                         Elapsed time (sec):      466.820
  
                   Maximum memory used (kb):      131112.
                   Average memory used (kb):           0.
  
                          Minor page faults:        21142
                          Major page faults:            0
                 Voluntary context switches:        21156
