 vasp.5.3.3 18Dez12 (build May 12 2016 12:04:25) complex                        
  
 executed on             LinuxIFC date 2019.06.08  13:55:00
 running on   32 total cores
 distrk:  each k-point on   32 cores,    1 groups
 distr:  one band on NCORES_PER_BAND=   4 cores,    8 groups


--------------------------------------------------------------------------------------------------------


 INCAR:
 POTCAR:    PAW_PBE Mn 06Sep2000                  
 POTCAR:    PAW_PBE O 08Apr2002                   
 POTCAR:    PAW_PBE Mn 06Sep2000                  
  local pseudopotential read in
  partial core-charges read in
  partial kinetic energy density read in
  atomic valenz-charges read in
  non local Contribution for L=           2  read in
    real space projection operators read in
  non local Contribution for L=           2  read in
    real space projection operators read in
  non local Contribution for L=           0  read in
    real space projection operators read in
  non local Contribution for L=           0  read in
    real space projection operators read in
  non local Contribution for L=           1  read in
    real space projection operators read in
  non local Contribution for L=           1  read in
    real space projection operators read in
    PAW grid and wavefunctions read in
 
   number of l-projection  operators is LMAX  =           6
   number of lm-projection operators is LMMAX =          18
 
 POTCAR:    PAW_PBE O 08Apr2002                   
  local pseudopotential read in
  partial core-charges read in
  partial kinetic energy density read in
  kinetic energy density of atom read in
  atomic valenz-charges read in
  non local Contribution for L=           0  read in
    real space projection operators read in
  non local Contribution for L=           0  read in
    real space projection operators read in
  non local Contribution for L=           1  read in
    real space projection operators read in
  non local Contribution for L=           1  read in
    real space projection operators read in
    PAW grid and wavefunctions read in
 
   number of l-projection  operators is LMAX  =           4
   number of lm-projection operators is LMMAX =           8
 

 ----------------------------------------------------------------------------- 
|                                                                             |
|  ADVICE TO THIS USER RUNNING 'VASP/VAMP'   (HEAR YOUR MASTER'S VOICE ...):  |
|                                                                             |
|      You enforced a specific xc-type in the INCAR file,                     |
|      a different type was found on the POTCAR file                          |
|          I HOPE YOU KNOW, WHAT YOU ARE  DOING                               |
|                                                                             |
 ----------------------------------------------------------------------------- 

  PAW_PBE Mn 06Sep2000                  :
 energy of atom  1       EATOM= -416.7541
 kinetic energy error for atom=    0.0024 (will be added to EATOM!!)
  PAW_PBE O 08Apr2002                   :
 energy of atom  2       EATOM= -432.3788
 kinetic energy error for atom=    0.0208 (will be added to EATOM!!)
 
 
 POSCAR: (Mn O2)4  (P1) ~ POSCAR_1 (VASP)        
  positions in direct lattice
  velocities in cartesian coordinates
 exchange correlation table for  LEXCH =       14
   RHO(1)=    0.500       N(1)  =     2000
   RHO(2)=  100.500       N(2)  =     4000
 


--------------------------------------------------------------------------------------------------------


 ion  position               nearest neighbor table
   1  0.000  0.000  0.000-   8 1.91   7 1.91   6 1.91   5 1.91  10 1.92   9 1.92   2 2.87   2 2.87
                             3 2.87   3 2.87   4 2.87   4 2.87
   2  0.000  0.500  0.000-   6 1.91   5 1.91   8 1.91   7 1.91  12 1.92  11 1.92   1 2.87   1 2.87
                             4 2.87   4 2.87   3 2.87   3 2.87
   3  0.500  0.000  0.000-  12 1.91  11 1.91  10 1.91   9 1.91   6 1.92   5 1.92   4 2.87   4 2.87
                             1 2.87   1 2.87   2 2.87   2 2.87
   4  0.500  0.500  0.000-  10 1.91   9 1.91  12 1.91  11 1.91   8 1.92   7 1.92   3 2.87   3 2.87
                             2 2.87   2 2.87   1 2.87   1 2.87
   5  0.192  0.813  0.136-   2 1.91   1 1.91   3 1.92
   6  0.808  0.187  0.864-   2 1.91   1 1.91   3 1.92
   7  0.192  0.313  0.136-   1 1.91   2 1.91   4 1.92
   8  0.808  0.687  0.864-   1 1.91   2 1.91   4 1.92
   9  0.692  0.813  0.136-   4 1.91   3 1.91   1 1.92
  10  0.308  0.187  0.864-   4 1.91   3 1.91   1 1.92
  11  0.692  0.313  0.136-   3 1.91   4 1.91   2 1.92
  12  0.308  0.687  0.864-   3 1.91   4 1.91   2 1.92
 
  LATTYP: Found a triclinic cell.
 ALAT       =     5.7437963701
 B/A-ratio  =     1.8905365620
 C/A-ratio  =     1.0003177098
 COS(alpha) =     0.0116310852
 COS(beta)  =     0.5001221666
 COS(gamma) =     0.6663927955
  
  Lattice vectors:
  
 A1 = (   2.9735415558,  -4.9141818850,  -0.0079848586)
 A2 = (   7.2354678326,  -4.0911097966,   6.9875319066)
 A3 = (  -2.7691231246,  -5.0342384119,   0.0237498512)


Analysis of symmetry for initial positions (statically):
=====================================================================
 Subroutine PRICEL returns following result:
 
  LATTYP: Found a triclinic cell.
 ALAT       =     2.8720035817
 B/A-ratio  =     0.9999633020
 C/A-ratio  =     2.5029797964
 COS(alpha) =     0.0079745817
 COS(beta)  =     0.1902299434
 COS(gamma) =     0.4997006011
  
  Lattice vectors:
  
 A1 = (  -2.8713323402,  -0.0600282634,   0.0158673549)
 A2 = (  -1.4867707779,   2.4570909425,   0.0039924293)
 A3 = (  -1.3905939365,  -0.7630438250,  -7.0113841200)
 
   4 primitive cells build up your supercell.
 

 Routine SETGRP: Setting up the symmetry group for a 
 triclinic supercell.


 Subroutine GETGRP returns: Found  2 space group operations
 (whereof  2 operations were pure point group operations)
 out of a pool of  2 trial point group operations.


The static configuration has the point symmetry S_2 .


Analysis of symmetry for dynamics (positions and initial velocities):
=====================================================================
 Subroutine PRICEL returns following result:
 
  LATTYP: Found a triclinic cell.
 ALAT       =     2.8720035817
 B/A-ratio  =     0.9999633020
 C/A-ratio  =     2.5029797964
 COS(alpha) =     0.0079745817
 COS(beta)  =     0.1902299434
 COS(gamma) =     0.4997006011
  
  Lattice vectors:
  
 A1 = (  -2.8713323402,  -0.0600282634,   0.0158673549)
 A2 = (  -1.4867707779,   2.4570909425,   0.0039924293)
 A3 = (  -1.3905939365,  -0.7630438250,  -7.0113841200)
 
   4 primitive cells build up your supercell.
 

 Routine SETGRP: Setting up the symmetry group for a 
 triclinic supercell.


 Subroutine GETGRP returns: Found  2 space group operations
 (whereof  2 operations were pure point group operations)
 out of a pool of  2 trial point group operations.


The dynamic configuration has the point symmetry S_2 .


Analysis of magnetic symmetry:
=====================================================================

 Subroutine MAGSYM returns: Found  2 space group operations
 (whereof  2 operations were pure point group operations)
 out of a pool of  2 trial space group operations
 (whereof  2 operations were pure point group operations)
 and found also     4 'primitive' translations


The magnetic configuration has the point symmetry S_2 .


 irot  :   1
 --------------------------------------------------------------------
 isymop:   1   0   0
           0   1   0
           0   0   1

 gtrans:     0.0000000     0.0000000     0.0000000

 ptrans:     0.0000000     0.0000000     0.0000000
 rotmap:
 (   1->   1)  (   2->   2)  (   3->   3)  (   4->   4)  (   5->   5) 
 (   6->   6)  (   7->   7)  (   8->   8)  (   9->   9)  (  10->  10) 
 (  11->  11)  (  12->  12) 

 ptrans:     0.5000000     0.0000000     0.0000000
 rotmap:
 (   1->   3)  (   2->   4)  (   3->   1)  (   4->   2)  (   5->   9) 
 (   6->  10)  (   7->  11)  (   8->  12)  (   9->   5)  (  10->   6) 
 (  11->   7)  (  12->   8) 

 ptrans:     0.0000000     0.5000000     0.0000000
 rotmap:
 (   1->   2)  (   2->   1)  (   3->   4)  (   4->   3)  (   5->   7) 
 (   6->   8)  (   7->   5)  (   8->   6)  (   9->  11)  (  10->  12) 
 (  11->   9)  (  12->  10) 

 ptrans:     0.5000000     0.5000000     0.0000000
 rotmap:
 (   1->   4)  (   2->   3)  (   3->   2)  (   4->   1)  (   5->  11) 
 (   6->  12)  (   7->   9)  (   8->  10)  (   9->   7)  (  10->   8) 
 (  11->   5)  (  12->   6) 


 irot  :   2
 --------------------------------------------------------------------
 isymop:  -1   0   0
           0  -1   0
           0   0  -1

 gtrans:     0.0000000     0.0000000     0.0000000

 ptrans:     0.0000000     0.0000000     0.0000000
 rotmap:
 (   1->   1)  (   2->   2)  (   3->   3)  (   4->   4)  (   5->   6) 
 (   6->   5)  (   7->   8)  (   8->   7)  (   9->  10)  (  10->   9) 
 (  11->  12)  (  12->  11) 

 ptrans:     0.5000000     0.0000000     0.0000000
 rotmap:
 (   1->   3)  (   2->   4)  (   3->   1)  (   4->   2)  (   5->  10) 
 (   6->   9)  (   7->  12)  (   8->  11)  (   9->   6)  (  10->   5) 
 (  11->   8)  (  12->   7) 

 ptrans:     0.0000000     0.5000000     0.0000000
 rotmap:
 (   1->   2)  (   2->   1)  (   3->   4)  (   4->   3)  (   5->   8) 
 (   6->   7)  (   7->   6)  (   8->   5)  (   9->  12)  (  10->  11) 
 (  11->  10)  (  12->   9) 

 ptrans:     0.5000000     0.5000000     0.0000000
 rotmap:
 (   1->   4)  (   2->   3)  (   3->   2)  (   4->   1)  (   5->  12) 
 (   6->  11)  (   7->  10)  (   8->   9)  (   9->   8)  (  10->   7) 
 (  11->   6)  (  12->   5) 
 
 
 KPOINTS: Automatic mesh                          

Automatic generation of k-mesh.
Space group operators:
 irot       det(A)        alpha          n_x          n_y          n_z        tau_x        tau_y        tau_z
    1     1.000000     0.000000     1.000000     0.000000     0.000000     0.000000     0.000000     0.000000
    2    -1.000000     0.000000     1.000000     0.000000     0.000000     0.000000     0.000000     0.000000
 
 Subroutine IBZKPT returns following result:
 ===========================================
 
 Found     76 irreducible k-points:
 
 Following reciprocal coordinates:
            Coordinates               Weight
  0.000000  0.000000  0.000000      1.000000
  0.166667 -0.000000 -0.000000      2.000000
  0.333333 -0.000000 -0.000000      2.000000
  0.500000 -0.000000 -0.000000      1.000000
  0.000000  0.166667  0.000000      2.000000
  0.166667  0.166667  0.000000      2.000000
  0.333333  0.166667  0.000000      2.000000
  0.500000  0.166667  0.000000      2.000000
 -0.333333  0.166667  0.000000      2.000000
 -0.166667  0.166667  0.000000      2.000000
  0.000000  0.333333  0.000000      2.000000
  0.166667  0.333333  0.000000      2.000000
  0.333333  0.333333  0.000000      2.000000
  0.500000  0.333333  0.000000      2.000000
 -0.333333  0.333333 -0.000000      2.000000
 -0.166667  0.333333 -0.000000      2.000000
  0.000000  0.500000 -0.000000      1.000000
  0.166667  0.500000 -0.000000      2.000000
  0.333333  0.500000  0.000000      2.000000
  0.500000  0.500000  0.000000      1.000000
  0.000000 -0.000000  0.250000      2.000000
  0.166667 -0.000000  0.250000      2.000000
  0.333333 -0.000000  0.250000      2.000000
  0.500000 -0.000000  0.250000      2.000000
 -0.333333  0.000000  0.250000      2.000000
 -0.166667  0.000000  0.250000      2.000000
  0.000000  0.166667  0.250000      2.000000
  0.166667  0.166667  0.250000      2.000000
  0.333333  0.166667  0.250000      2.000000
  0.500000  0.166667  0.250000      2.000000
 -0.333333  0.166667  0.250000      2.000000
 -0.166667  0.166667  0.250000      2.000000
  0.000000  0.333333  0.250000      2.000000
  0.166667  0.333333  0.250000      2.000000
  0.333333  0.333333  0.250000      2.000000
  0.500000  0.333333  0.250000      2.000000
 -0.333333  0.333333  0.250000      2.000000
 -0.166667  0.333333  0.250000      2.000000
 -0.000000  0.500000  0.250000      2.000000
  0.166667  0.500000  0.250000      2.000000
  0.333333  0.500000  0.250000      2.000000
  0.500000  0.500000  0.250000      2.000000
 -0.333333  0.500000  0.250000      2.000000
 -0.166667  0.500000  0.250000      2.000000
 -0.000000 -0.333333  0.250000      2.000000
  0.166667 -0.333333  0.250000      2.000000
  0.333333 -0.333333  0.250000      2.000000
  0.500000 -0.333333  0.250000      2.000000
 -0.333333 -0.333333  0.250000      2.000000
 -0.166667 -0.333333  0.250000      2.000000
  0.000000 -0.166667  0.250000      2.000000
  0.166667 -0.166667  0.250000      2.000000
  0.333333 -0.166667  0.250000      2.000000
  0.500000 -0.166667  0.250000      2.000000
 -0.333333 -0.166667  0.250000      2.000000
 -0.166667 -0.166667  0.250000      2.000000
  0.000000 -0.000000  0.500000      1.000000
  0.166667 -0.000000  0.500000      2.000000
  0.333333 -0.000000  0.500000      2.000000
  0.500000 -0.000000  0.500000      1.000000
  0.000000  0.166667  0.500000      2.000000
  0.166667  0.166667  0.500000      2.000000
  0.333333  0.166667  0.500000      2.000000
  0.500000  0.166667  0.500000      2.000000
 -0.333333  0.166667  0.500000      2.000000
 -0.166667  0.166667  0.500000      2.000000
  0.000000  0.333333  0.500000      2.000000
  0.166667  0.333333  0.500000      2.000000
  0.333333  0.333333  0.500000      2.000000
  0.500000  0.333333  0.500000      2.000000
 -0.333333  0.333333  0.500000      2.000000
 -0.166667  0.333333  0.500000      2.000000
  0.000000  0.500000  0.500000      1.000000
  0.166667  0.500000  0.500000      2.000000
  0.333333  0.500000  0.500000      2.000000
  0.500000  0.500000  0.500000      1.000000
 
 Following cartesian coordinates:
            Coordinates               Weight
  0.000000  0.000000  0.000000      1.000000
  0.028684  0.017349  0.004308      2.000000
  0.057367  0.034699  0.008617      2.000000
  0.086051  0.052048  0.012925      1.000000
 -0.000719  0.033486 -0.003502      2.000000
  0.027964  0.050835  0.000807      2.000000
  0.056648  0.068184  0.005115      2.000000
  0.085331  0.085534  0.009424      2.000000
 -0.058087 -0.001213 -0.012118      2.000000
 -0.029403  0.016137 -0.007810      2.000000
 -0.001439  0.066972 -0.007003      2.000000
  0.027245  0.084321 -0.002695      2.000000
  0.055928  0.101670  0.001614      2.000000
  0.084612  0.119020  0.005922      2.000000
 -0.058806  0.032273 -0.015620      2.000000
 -0.030122  0.049622 -0.011312      2.000000
 -0.002158  0.100457 -0.010505      1.000000
  0.026525  0.117807 -0.006196      2.000000
  0.055209  0.135156 -0.001888      2.000000
  0.083893  0.152505  0.002421      1.000000
  0.000196  0.000060  0.035611      2.000000
  0.028879  0.017410  0.039919      2.000000
  0.057563  0.034759  0.044228      2.000000
  0.086246  0.052108  0.048536      2.000000
 -0.057172 -0.034638  0.026994      2.000000
 -0.028488 -0.017289  0.031303      2.000000
 -0.000524  0.033546  0.032109      2.000000
  0.028160  0.050896  0.036418      2.000000
  0.056843  0.068245  0.040726      2.000000
  0.085527  0.085594  0.045035      2.000000
 -0.057891 -0.001152  0.023493      2.000000
 -0.029208  0.016197  0.027801      2.000000
 -0.001243  0.067032  0.028608      2.000000
  0.027440  0.084381  0.032916      2.000000
  0.056124  0.101731  0.037225      2.000000
  0.084808  0.119080  0.041533      2.000000
 -0.058611  0.032334  0.019991      2.000000
 -0.029927  0.049683  0.024299      2.000000
 -0.001963  0.100518  0.025106      2.000000
  0.026721  0.117867  0.029415      2.000000
  0.055405  0.135217  0.033723      2.000000
  0.084088  0.152566  0.038031      2.000000
 -0.059330  0.065819  0.016489      2.000000
 -0.030646  0.083169  0.020798      2.000000
  0.001634 -0.066911  0.042614      2.000000
  0.030318 -0.049562  0.046922      2.000000
  0.059002 -0.032213  0.051231      2.000000
  0.087685 -0.014863  0.055539      2.000000
 -0.055733 -0.101610  0.033997      2.000000
 -0.027049 -0.084260  0.038306      2.000000
  0.000915 -0.033425  0.039112      2.000000
  0.029599 -0.016076  0.043421      2.000000
  0.058282  0.001273  0.047729      2.000000
  0.086966  0.018623  0.052038      2.000000
 -0.056452 -0.068124  0.030496      2.000000
 -0.027769 -0.050775  0.034804      2.000000
  0.000391  0.000121  0.071222      1.000000
  0.029075  0.017470  0.075530      2.000000
  0.057758  0.034819  0.079839      2.000000
  0.086442  0.052169  0.084147      1.000000
 -0.000328  0.033607  0.067720      2.000000
  0.028355  0.050956  0.072029      2.000000
  0.057039  0.068305  0.076337      2.000000
  0.085723  0.085655  0.080645      2.000000
 -0.057696 -0.001092  0.059104      2.000000
 -0.029012  0.016257  0.063412      2.000000
 -0.001048  0.067093  0.064219      2.000000
  0.027636  0.084442  0.068527      2.000000
  0.056320  0.101791  0.072836      2.000000
  0.085003  0.119140  0.077144      2.000000
 -0.058415  0.032394  0.055602      2.000000
 -0.029731  0.049743  0.059910      2.000000
 -0.001767  0.100578  0.060717      1.000000
  0.026916  0.117928  0.065026      2.000000
  0.055600  0.135277  0.069334      2.000000
  0.084284  0.152626  0.073642      1.000000
 
 TETIRR: Found    432 inequivalent tetrahedra from      864


--------------------------------------------------------------------------------------------------------




 Dimension of arrays:
   k-points           NKPTS =     76   k-points in BZ     NKDIM =     76   number of bands    NBANDS=     48
   number of dos      NEDOS =    301   number of ions     NIONS =     12
   non local maximal  LDIM  =      6   non local SUM 2l+1 LMDIM =     18
   total plane-waves  NPLWV =  40960
   max r-space proj   IRMAX =      1   max aug-charges    IRDMAX=   7705
   dimension x,y,z NGX =    32 NGY =   32 NGZ =   40
   dimension x,y,z NGXF=    64 NGYF=   64 NGZF=   80
   support grid    NGXF=    64 NGYF=   64 NGZF=   80
   ions per type =               4   8
 NGX,Y,Z   is equivalent  to a cutoff of   9.26,  9.26,  9.22 a.u.
 NGXF,Y,Z  is equivalent  to a cutoff of  18.52, 18.52, 18.43 a.u.


 I would recommend the setting:
   dimension x,y,z NGX =    32 NGY =   32 NGZ =   40
 SYSTEM =  (Mn O2)4  (P1) ~ POSCAR_1 (VASP)        
 POSCAR =  (Mn O2)4  (P1) ~ POSCAR_1 (VASP)        

 Startparameter for this run:
   NWRITE =      1    write-flag & timer
   PREC   = normal    normal or accurate (medium, high low for compatibility)
   ISTART =      0    job   : 0-new  1-cont  2-samecut
   ICHARG =     11    charge: 1-file 2-atom 10-const
   ISPIN  =      2    spin polarized calculation?
   LNONCOLLINEAR =      F non collinear calculations
   LSORBIT =      F    spin-orbit coupling
   INIWAV =      1    electr: 0-lowe 1-rand  2-diag
   LASPH  =      F    aspherical Exc in radial PAW
   METAGGA=      F    non-selfconsistent MetaGGA calc.

 Electronic Relaxation 1
   ENCUT  =  520.0 eV  38.22 Ry    6.18 a.u.  10.68 10.68 13.42*2*pi/ulx,y,z
   ENINI  =  520.0     initial cutoff
   ENAUG  =  605.4 eV  augmentation charge cutoff
   NELM   =     60;   NELMIN=  2; NELMDL= -5     # of ELM steps 
   EDIFF  = 0.1E-03   stopping-criterion for ELM
   LREAL  =      F    real-space projection
   NLSPLINE    = F    spline interpolate recip. space projectors
   LCOMPAT=      F    compatible to vasp.4.4
   GGA_COMPAT  = T    GGA compatible to vasp.4.4-vasp.4.6
   LMAXPAW     = -100 max onsite density
   LMAXMIX     =    4 max onsite mixed and CHGCAR
   VOSKOWN=      1    Vosko Wilk Nusair interpolation
   ROPT   =    0.00000   0.00000
 Ionic relaxation
   EDIFFG = 0.1E-02   stopping-criterion for IOM
   NSW    =      0    number of steps for IOM
   NBLOCK =      1;   KBLOCK =      1    inner block; outer block 
   IBRION =     -1    ionic relax: 0-MD 1-quasi-New 2-CG
   NFREE  =      0    steps in history (QN), initial steepest desc. (CG)
   ISIF   =      2    stress and relaxation
   IWAVPR =     10    prediction:  0-non 1-charg 2-wave 3-comb
   ISYM   =      2    0-nonsym 1-usesym 2-fastsym
   LCORR  =      T    Harris-Foulkes like correction to forces

   POTIM  = 0.5000    time-step for ionic-motion
   TEIN   =    0.0    initial temperature
   TEBEG  =    0.0;   TEEND  =   0.0 temperature during run
   SMASS  =  -3.00    Nose mass-parameter (am)
   estimated Nose-frequenzy (Omega)   =  0.10E-29 period in steps =****** mass=  -0.754E-27a.u.
   SCALEE = 1.0000    scale energy and forces
   NPACO  =    256;   APACO  = 16.0  distance and # of slots for P.C.
   PSTRESS=    0.0 pullay stress

  Mass of Ions in am
   POMASS =  54.94 16.00
  Ionic Valenz
   ZVAL   =   7.00  6.00
  Atomic Wigner-Seitz radii
   RWIGS  =  -1.00 -1.00
  virtual crystal weights 
   VCA    =   1.00  1.00
   NELECT =      76.0000    total number of electrons
   NUPDOWN=      -1.0000    fix difference up-down

 DOS related values:
   EMIN   =  10.00;   EMAX   =-10.00  energy-range for DOS
   EFERMI =   0.00
   ISMEAR =    -5;   SIGMA  =   0.20  broadening in eV -4-tet -1-fermi 0-gaus

 Electronic relaxation 2 (details)
   IALGO  =     38    algorithm
   LDIAG  =      T    sub-space diagonalisation (order eigenvalues)
   LSUBROT=      T    optimize rotation matrix (better conditioning)
   TURBO    =      0    0=normal 1=particle mesh
   IRESTART =      0    0=no restart 2=restart with 2 vectors
   NREBOOT  =      0    no. of reboots
   NMIN     =      0    reboot dimension
   EREF     =   0.00    reference energy to select bands
   IMIX   =      4    mixing-type and parameters
     AMIX     =   0.40;   BMIX     =  1.00
     AMIX_MAG =   1.60;   BMIX_MAG =  1.00
     AMIN     =   0.10
     WC   =   100.;   INIMIX=   1;  MIXPRE=   1;  MAXMIX= -45

 Intra band minimization:
   WEIMIN = 0.0000     energy-eigenvalue tresh-hold
   EBREAK =  0.52E-06  absolut break condition
   DEPER  =   0.30     relativ break condition  

   TIME   =   0.40     timestep for ELM

  volume/ion in A,a.u.               =      16.72       112.82
  Fermi-wavevector in a.u.,A,eV,Ry     =   1.184547  2.238470 19.091051  1.403153
  Thomas-Fermi vector in A             =   2.320759
 
 Write flags
   LWAVE  =      F    write WAVECAR
   LCHARG =      T    write CHGCAR
   LVTOT  =      F    write LOCPOT, total local potential
   LVHAR  =      F    write LOCPOT, Hartree potential only
   LELF   =      F    write electronic localiz. function (ELF)
   LORBIT =     11    0 simple, 1 ext, 2 COOP (PROOUT)


 Dipole corrections
   LMONO  =      F    monopole corrections only (constant potential shift)
   LDIPOL =      F    correct potential (dipole corrections)
   IDIPOL =      0    1-x, 2-y, 3-z, 4-all directions 
   EPSILON=  1.0000000 bulk dielectric constant

 LDA+U is selected, type is set to LDAUTYPE =  2
   angular momentum for each species LDAUL =     2   -1
   U (eV)           for each species LDAUU =   3.9  0.0
   J (eV)           for each species LDAUJ =   0.0  0.0
 Exchange correlation treatment:
   GGA     =    PS    GGA type
   LEXCH   =    14    internal setting for exchange type
   VOSKOWN=      1    Vosko Wilk Nusair interpolation
   LHFCALC =     F    Hartree Fock is set to
   LHFONE  =     F    Hartree Fock one center treatment
   AEXX    =    0.0000 exact exchange contribution

 Linear response parameters
   LEPSILON=     F    determine dielectric tensor
   LRPA    =     F    only Hartree local field effects (RPA)
   LNABLA  =     F    use nabla operator in PAW spheres
   LVEL    =     F    velocity operator in full k-point grid
   LINTERFAST=   F  fast interpolation
   KINTER  =     0    interpolate to denser k-point grid
   CSHIFT  =0.1000    complex shift for real part using Kramers Kronig
   OMEGAMAX=  -1.0    maximum frequency
   DEG_THRESHOLD= 0.2000000E-02 threshold for treating states as degnerate
   RTIME   =    0.100 relaxation time in fs

 Orbital magnetization related:
   ORBITALMAG=     F  switch on orbital magnetization
   LCHIMAG   =     F  perturbation theory with respect to B field
   DQ        =  0.001000  dq finite difference perturbation B field



--------------------------------------------------------------------------------------------------------


 Static calculation
 charge density and potential remain constant during run
 spin polarized calculation
 Variant of blocked Davidson
 Davidson routine will perform the subspace rotation
 perform sub-space diagonalisation
    after iterative eigenvector-optimisation
 no mixing
 using additional bands           10
 reciprocal scheme for non local part
 use partial core corrections
 calculate Harris-corrections to forces 
   (improved forces if not selfconsistent)
 use gradient corrections 
 WARNING: stress and forces are not correct
  (second derivative of E(xc) not defined)
 use of overlap-Matrix (Vanderbilt PP)
 Fermi weights with tetrahedron method with Bloechl corrections


--------------------------------------------------------------------------------------------------------


  energy-cutoff  :      520.00
  volume of cell :      200.62
      direct lattice vectors                 reciprocal lattice vectors
     5.742664680  0.120056527 -0.031734710     0.172101809  0.104095754  0.025850338
    -2.973541556  4.914181885  0.007984859    -0.004316442  0.200914956 -0.021009332
    -1.480738404  0.703015562  7.027251475     0.000782108  0.000241797  0.142443758

  length of vectors
     5.744007163  5.743796370  7.215890825     0.202788556  0.202056535  0.142446110


 
 k-points in units of 2pi/SCALE and weight: Automatic mesh                          
   0.00000000  0.00000000  0.00000000       0.007
   0.02868363  0.01734929  0.00430839       0.014
   0.05736727  0.03469858  0.00861678       0.014
   0.08605090  0.05204788  0.01292517       0.007
  -0.00071941  0.03348583 -0.00350156       0.014
   0.02796423  0.05083512  0.00080683       0.014
   0.05664786  0.06818441  0.00511522       0.014
   0.08533150  0.08553370  0.00942361       0.014
  -0.05808668 -0.00121276 -0.01211833       0.014
  -0.02940304  0.01613653 -0.00780994       0.014
  -0.00143881  0.06697165 -0.00700311       0.014
   0.02724482  0.08432094 -0.00269472       0.014
   0.05592846  0.10167024  0.00161367       0.014
   0.08461209  0.11901953  0.00592206       0.014
  -0.05880608  0.03227307 -0.01561989       0.014
  -0.03012245  0.04962236 -0.01131150       0.014
  -0.00215822  0.10045748 -0.01050467       0.007
   0.02652541  0.11780677 -0.00619628       0.014
   0.05520905  0.13515606 -0.00188789       0.014
   0.08389268  0.15250536  0.00242050       0.007
   0.00019553  0.00006045  0.03561094       0.014
   0.02887916  0.01740974  0.03991933       0.014
   0.05756280  0.03475903  0.04422772       0.014
   0.08624643  0.05210833  0.04853611       0.014
  -0.05717174 -0.03463814  0.02699416       0.014
  -0.02848811 -0.01728884  0.03130255       0.014
  -0.00052388  0.03354628  0.03210938       0.014
   0.02815975  0.05089557  0.03641777       0.014
   0.05684339  0.06824486  0.04072616       0.014
   0.08552702  0.08559415  0.04503455       0.014
  -0.05789115 -0.00115231  0.02349260       0.014
  -0.02920751  0.01619698  0.02780099       0.014
  -0.00124329  0.06703210  0.02860783       0.014
   0.02744035  0.08438139  0.03291622       0.014
   0.05612398  0.10173069  0.03722461       0.014
   0.08480762  0.11907998  0.04153300       0.014
  -0.05861056  0.03233352  0.01999105       0.014
  -0.02992692  0.04968281  0.02429944       0.014
  -0.00196269  0.10051793  0.02510627       0.014
   0.02672094  0.11786722  0.02941466       0.014
   0.05540458  0.13521651  0.03372305       0.014
   0.08408821  0.15256580  0.03803144       0.014
  -0.05932996  0.06581934  0.01648949       0.014
  -0.03064633  0.08316864  0.02079788       0.014
   0.00163434 -0.06691120  0.04261405       0.014
   0.03031798 -0.04956191  0.04692244       0.014
   0.05900161 -0.03221262  0.05123083       0.014
   0.08768525 -0.01486333  0.05553922       0.014
  -0.05573293 -0.10160979  0.03399727       0.014
  -0.02704929 -0.08426050  0.03830566       0.014
   0.00091493 -0.03342538  0.03911249       0.014
   0.02959857 -0.01607608  0.04342088       0.014
   0.05828220  0.00127321  0.04772927       0.014
   0.08696584  0.01862250  0.05203766       0.014
  -0.05645234 -0.06812396  0.03049572       0.014
  -0.02776870 -0.05077467  0.03480411       0.014
   0.00039105  0.00012090  0.07122188       0.007
   0.02907469  0.01747019  0.07553027       0.014
   0.05775832  0.03481948  0.07983866       0.014
   0.08644196  0.05216878  0.08414705       0.007
  -0.00032835  0.03360672  0.06772032       0.014
   0.02835528  0.05095602  0.07202871       0.014
   0.05703892  0.06830531  0.07633710       0.014
   0.08572255  0.08565460  0.08064549       0.014
  -0.05769562 -0.00109186  0.05910354       0.014
  -0.02901199  0.01625743  0.06341193       0.014
  -0.00104776  0.06709255  0.06421877       0.014
   0.02763587  0.08444184  0.06852716       0.014
   0.05631951  0.10179114  0.07283555       0.014
   0.08500314  0.11914043  0.07714394       0.014
  -0.05841503  0.03239397  0.05560199       0.014
  -0.02973139  0.04974326  0.05991038       0.014
  -0.00176717  0.10057838  0.06071721       0.007
   0.02691647  0.11792767  0.06502560       0.014
   0.05560010  0.13527696  0.06933399       0.014
   0.08428374  0.15262625  0.07364238       0.007
 
 k-points in reciprocal lattice and weights: Automatic mesh                          
   0.00000000  0.00000000  0.00000000       0.007
   0.16666667 -0.00000000 -0.00000000       0.014
   0.33333333 -0.00000000 -0.00000000       0.014
   0.50000000 -0.00000000 -0.00000000       0.007
   0.00000000  0.16666667  0.00000000       0.014
   0.16666667  0.16666667  0.00000000       0.014
   0.33333333  0.16666667  0.00000000       0.014
   0.50000000  0.16666667  0.00000000       0.014
  -0.33333333  0.16666667  0.00000000       0.014
  -0.16666667  0.16666667  0.00000000       0.014
   0.00000000  0.33333333  0.00000000       0.014
   0.16666667  0.33333333  0.00000000       0.014
   0.33333333  0.33333333  0.00000000       0.014
   0.50000000  0.33333333  0.00000000       0.014
  -0.33333333  0.33333333 -0.00000000       0.014
  -0.16666667  0.33333333 -0.00000000       0.014
   0.00000000  0.50000000 -0.00000000       0.007
   0.16666667  0.50000000 -0.00000000       0.014
   0.33333333  0.50000000  0.00000000       0.014
   0.50000000  0.50000000  0.00000000       0.007
   0.00000000 -0.00000000  0.25000000       0.014
   0.16666667 -0.00000000  0.25000000       0.014
   0.33333333 -0.00000000  0.25000000       0.014
   0.50000000 -0.00000000  0.25000000       0.014
  -0.33333333  0.00000000  0.25000000       0.014
  -0.16666667  0.00000000  0.25000000       0.014
   0.00000000  0.16666667  0.25000000       0.014
   0.16666667  0.16666667  0.25000000       0.014
   0.33333333  0.16666667  0.25000000       0.014
   0.50000000  0.16666667  0.25000000       0.014
  -0.33333333  0.16666667  0.25000000       0.014
  -0.16666667  0.16666667  0.25000000       0.014
   0.00000000  0.33333333  0.25000000       0.014
   0.16666667  0.33333333  0.25000000       0.014
   0.33333333  0.33333333  0.25000000       0.014
   0.50000000  0.33333333  0.25000000       0.014
  -0.33333333  0.33333333  0.25000000       0.014
  -0.16666667  0.33333333  0.25000000       0.014
  -0.00000000  0.50000000  0.25000000       0.014
   0.16666667  0.50000000  0.25000000       0.014
   0.33333333  0.50000000  0.25000000       0.014
   0.50000000  0.50000000  0.25000000       0.014
  -0.33333333  0.50000000  0.25000000       0.014
  -0.16666667  0.50000000  0.25000000       0.014
  -0.00000000 -0.33333333  0.25000000       0.014
   0.16666667 -0.33333333  0.25000000       0.014
   0.33333333 -0.33333333  0.25000000       0.014
   0.50000000 -0.33333333  0.25000000       0.014
  -0.33333333 -0.33333333  0.25000000       0.014
  -0.16666667 -0.33333333  0.25000000       0.014
   0.00000000 -0.16666667  0.25000000       0.014
   0.16666667 -0.16666667  0.25000000       0.014
   0.33333333 -0.16666667  0.25000000       0.014
   0.50000000 -0.16666667  0.25000000       0.014
  -0.33333333 -0.16666667  0.25000000       0.014
  -0.16666667 -0.16666667  0.25000000       0.014
   0.00000000 -0.00000000  0.50000000       0.007
   0.16666667 -0.00000000  0.50000000       0.014
   0.33333333 -0.00000000  0.50000000       0.014
   0.50000000 -0.00000000  0.50000000       0.007
   0.00000000  0.16666667  0.50000000       0.014
   0.16666667  0.16666667  0.50000000       0.014
   0.33333333  0.16666667  0.50000000       0.014
   0.50000000  0.16666667  0.50000000       0.014
  -0.33333333  0.16666667  0.50000000       0.014
  -0.16666667  0.16666667  0.50000000       0.014
   0.00000000  0.33333333  0.50000000       0.014
   0.16666667  0.33333333  0.50000000       0.014
   0.33333333  0.33333333  0.50000000       0.014
   0.50000000  0.33333333  0.50000000       0.014
  -0.33333333  0.33333333  0.50000000       0.014
  -0.16666667  0.33333333  0.50000000       0.014
   0.00000000  0.50000000  0.50000000       0.007
   0.16666667  0.50000000  0.50000000       0.014
   0.33333333  0.50000000  0.50000000       0.014
   0.50000000  0.50000000  0.50000000       0.007
 
 position of ions in fractional coordinates (direct lattice) 
   0.00000000  0.00000000  0.00000000
   0.00000000  0.50000000  0.00000000
   0.50000000  0.00000000  0.00000000
   0.50000000  0.50000000  0.00000000
   0.19213905  0.81328466  0.13629959
   0.80786095  0.18671534  0.86370042
   0.19213905  0.31328460  0.13629959
   0.80786095  0.68671540  0.86370042
   0.69213905  0.81328466  0.13629959
   0.30786095  0.18671534  0.86370042
   0.69213905  0.31328460  0.13629959
   0.30786095  0.68671540  0.86370042
 
 position of ions in cartesian coordinates  (Angst):
   0.00000000  0.00000000  0.00000000
  -1.48677078  2.45709094  0.00399243
   2.87133234  0.06002826 -0.01586735
   1.38456156  2.51711921 -0.01187493
  -1.51676964  4.11551705  0.95820799
   2.80515435  1.62173693  6.04529370
  -0.02999869  1.65842581  0.95421556
   1.31838339  4.07882817  6.04928613
   1.35456270  4.17554531  0.94234064
  -0.06617799  1.56170867  6.06116106
   2.84133365  1.71845407  0.93834821
  -1.55294895  4.01879991  6.06515349
 


--------------------------------------------------------------------------------------------------------


 k-point  1 :   0.0000 0.0000 0.0000  plane waves:    5429
 k-point  2 :   0.1667-0.0000-0.0000  plane waves:    5415
 k-point  3 :   0.3333-0.0000-0.0000  plane waves:    5407
 k-point  4 :   0.5000-0.0000-0.0000  plane waves:    5420
 k-point  5 :   0.0000 0.1667 0.0000  plane waves:    5422
 k-point  6 :   0.1667 0.1667 0.0000  plane waves:    5399
 k-point  7 :   0.3333 0.1667 0.0000  plane waves:    5400
 k-point  8 :   0.5000 0.1667 0.0000  plane waves:    5416
 k-point  9 :  -0.3333 0.1667 0.0000  plane waves:    5399
 k-point 10 :  -0.1667 0.1667 0.0000  plane waves:    5408
 k-point 11 :   0.0000 0.3333 0.0000  plane waves:    5401
 k-point 12 :   0.1667 0.3333 0.0000  plane waves:    5402
 k-point 13 :   0.3333 0.3333 0.0000  plane waves:    5394
 k-point 14 :   0.5000 0.3333 0.0000  plane waves:    5408
 k-point 15 :  -0.3333 0.3333-0.0000  plane waves:    5394
 k-point 16 :  -0.1667 0.3333-0.0000  plane waves:    5400
 k-point 17 :   0.0000 0.5000-0.0000  plane waves:    5386
 k-point 18 :   0.1667 0.5000-0.0000  plane waves:    5403
 k-point 19 :   0.3333 0.5000 0.0000  plane waves:    5390
 k-point 20 :   0.5000 0.5000 0.0000  plane waves:    5384
 k-point 21 :   0.0000-0.0000 0.2500  plane waves:    5422
 k-point 22 :   0.1667-0.0000 0.2500  plane waves:    5415
 k-point 23 :   0.3333-0.0000 0.2500  plane waves:    5402
 k-point 24 :   0.5000-0.0000 0.2500  plane waves:    5383
 k-point 25 :  -0.3333 0.0000 0.2500  plane waves:    5391
 k-point 26 :  -0.1667 0.0000 0.2500  plane waves:    5403
 k-point 27 :   0.0000 0.1667 0.2500  plane waves:    5419
 k-point 28 :   0.1667 0.1667 0.2500  plane waves:    5397
 k-point 29 :   0.3333 0.1667 0.2500  plane waves:    5403
 k-point 30 :   0.5000 0.1667 0.2500  plane waves:    5401
 k-point 31 :  -0.3333 0.1667 0.2500  plane waves:    5396
 k-point 32 :  -0.1667 0.1667 0.2500  plane waves:    5417
 k-point 33 :   0.0000 0.3333 0.2500  plane waves:    5391
 k-point 34 :   0.1667 0.3333 0.2500  plane waves:    5414
 k-point 35 :   0.3333 0.3333 0.2500  plane waves:    5401
 k-point 36 :   0.5000 0.3333 0.2500  plane waves:    5402
 k-point 37 :  -0.3333 0.3333 0.2500  plane waves:    5398
 k-point 38 :  -0.1667 0.3333 0.2500  plane waves:    5395
 k-point 39 :  -0.0000 0.5000 0.2500  plane waves:    5397
 k-point 40 :   0.1667 0.5000 0.2500  plane waves:    5397
 k-point 41 :   0.3333 0.5000 0.2500  plane waves:    5395
 k-point 42 :   0.5000 0.5000 0.2500  plane waves:    5394
 k-point 43 :  -0.3333 0.5000 0.2500  plane waves:    5419
 k-point 44 :  -0.1667 0.5000 0.2500  plane waves:    5405
 k-point 45 :  -0.0000-0.3333 0.2500  plane waves:    5393
 k-point 46 :   0.1667-0.3333 0.2500  plane waves:    5379
 k-point 47 :   0.3333-0.3333 0.2500  plane waves:    5394
 k-point 48 :   0.5000-0.3333 0.2500  plane waves:    5400
 k-point 49 :  -0.3333-0.3333 0.2500  plane waves:    5390
 k-point 50 :  -0.1667-0.3333 0.2500  plane waves:    5395
 k-point 51 :   0.0000-0.1667 0.2500  plane waves:    5413
 k-point 52 :   0.1667-0.1667 0.2500  plane waves:    5410
 k-point 53 :   0.3333-0.1667 0.2500  plane waves:    5402
 k-point 54 :   0.5000-0.1667 0.2500  plane waves:    5403
 k-point 55 :  -0.3333-0.1667 0.2500  plane waves:    5405
 k-point 56 :  -0.1667-0.1667 0.2500  plane waves:    5407
 k-point 57 :   0.0000-0.0000 0.5000  plane waves:    5422
 k-point 58 :   0.1667-0.0000 0.5000  plane waves:    5401
 k-point 59 :   0.3333-0.0000 0.5000  plane waves:    5390
 k-point 60 :   0.5000-0.0000 0.5000  plane waves:    5386
 k-point 61 :   0.0000 0.1667 0.5000  plane waves:    5395
 k-point 62 :   0.1667 0.1667 0.5000  plane waves:    5378
 k-point 63 :   0.3333 0.1667 0.5000  plane waves:    5396
 k-point 64 :   0.5000 0.1667 0.5000  plane waves:    5387
 k-point 65 :  -0.3333 0.1667 0.5000  plane waves:    5387
 k-point 66 :  -0.1667 0.1667 0.5000  plane waves:    5408
 k-point 67 :   0.0000 0.3333 0.5000  plane waves:    5395
 k-point 68 :   0.1667 0.3333 0.5000  plane waves:    5400
 k-point 69 :   0.3333 0.3333 0.5000  plane waves:    5397
 k-point 70 :   0.5000 0.3333 0.5000  plane waves:    5398
 k-point 71 :  -0.3333 0.3333 0.5000  plane waves:    5398
 k-point 72 :  -0.1667 0.3333 0.5000  plane waves:    5398
 k-point 73 :   0.0000 0.5000 0.5000  plane waves:    5396
 k-point 74 :   0.1667 0.5000 0.5000  plane waves:    5412
 k-point 75 :   0.3333 0.5000 0.5000  plane waves:    5408
 k-point 76 :   0.5000 0.5000 0.5000  plane waves:    5408

 maximum and minimum number of plane-waves per node :      1372     1318

 maximum number of plane-waves:      5429
 maximum index in each direction: 
   IXMAX=   11   IYMAX=   11   IZMAX=   13
   IXMIN=  -11   IYMIN=  -11   IZMIN=  -13

 WARNING: aliasing errors must be expected set NGX to  46 to avoid them
 WARNING: aliasing errors must be expected set NGY to  46 to avoid them
 WARNING: aliasing errors must be expected set NGZ to  54 to avoid them
 aliasing errors are usually negligible using standard VASP settings
 and one can safely disregard these warnings

 parallel 3D FFT for wavefunctions:
    minimum data exchange during FFTs selected (reduces bandwidth)
 parallel 3D FFT for charge:
    minimum data exchange during FFTs selected (reduces bandwidth)


 total amount of memory used by VASP on root node    83472. kBytes
========================================================================

   base      :      30000. kBytes
   nonl-proj :      30382. kBytes
   fftplans  :        673. kBytes
   grid      :       1662. kBytes
   one-center:         93. kBytes
   wavefun   :      20662. kBytes
 
 initial charge density was supplied:
 number of electron      76.0000111 magnetization       0.0000000
 keeping initial charge density in first step


--------------------------------------------------------------------------------------------------------


 Maximum index for augmentation-charges          411 (set IRDMAX)


--------------------------------------------------------------------------------------------------------


 First call to EWALD:  gamma=   0.303
 Maximum number of real-space cells 3x 3x 2
 Maximum number of reciprocal cells 3x 3x 3

 FEWALD executed in parallel
    FEWALD:  cpu time    0.00: real time    0.00


----------------------------------------- Iteration    1(   1)  ---------------------------------------


    POTLOK:  cpu time    0.02: real time    0.02
    SETDIJ:  cpu time    0.01: real time    0.01
     EDDAV:  cpu time    4.48: real time    4.48
 BZINTS: Fermi energy: 15.886049; 76.000000 electrons
         Band energy: 424.014769;  BLOECHL correction: -0.110805
       DOS:  cpu time    0.06: real time    0.06
    --------------------------------------------
      LOOP:  cpu time    4.56: real time    4.63

 eigenvalue-minimisations  : 14592
 total energy-change (2. order) : 0.9485491E+03  (-0.3429568E+04)
 number of electron      76.0000111 magnetization       0.0000000
 augmentation part       76.0000111 magnetization       0.0000000

 Free energy of the ion-electron system (eV)
  ---------------------------------------------------
  alpha Z        PSCENC =       189.69156926
  Ewald energy   TEWEN  =      -871.68695160
  -1/2 Hartree   DENC   =     -4162.60127002
  -exchange  EXHF       =         0.00000000
  -V(xc)+E(xc)   XCENC  =       191.55174852
  PAW double counting   =      6500.34328232    -6433.33445934
  entropy T*S    EENTRO =         0.00000000
  eigenvalues    EBANDS =       424.01476864
  atomic energy  EATOM  =      5110.57042958
  ---------------------------------------------------
  free energy    TOTEN  =       948.54911737 eV

  energy without entropy =      948.54911737  energy(sigma->0) =      948.54911737


--------------------------------------------------------------------------------------------------------




----------------------------------------- Iteration    1(   2)  ---------------------------------------


     EDDAV:  cpu time    4.79: real time    4.79
 BZINTS: Fermi energy:  2.553669; 76.000000 electrons
         Band energy:-413.809361;  BLOECHL correction: -0.108213
       DOS:  cpu time    0.06: real time    0.06
    --------------------------------------------
      LOOP:  cpu time    4.86: real time    4.95

 eigenvalue-minimisations  : 16064
 total energy-change (2. order) :-0.8378241E+03  (-0.7882351E+03)
 number of electron      76.0000111 magnetization       0.0000000
 augmentation part       76.0000111 magnetization       0.0000000

 Free energy of the ion-electron system (eV)
  ---------------------------------------------------
  alpha Z        PSCENC =       189.69156926
  Ewald energy   TEWEN  =      -871.68695160
  -1/2 Hartree   DENC   =     -4162.60127002
  -exchange  EXHF       =         0.00000000
  -V(xc)+E(xc)   XCENC  =       191.55174852
  PAW double counting   =      6500.34328232    -6433.33445934
  entropy T*S    EENTRO =         0.00000000
  eigenvalues    EBANDS =      -413.80936091
  atomic energy  EATOM  =      5110.57042958
  ---------------------------------------------------
  free energy    TOTEN  =       110.72498783 eV

  energy without entropy =      110.72498783  energy(sigma->0) =      110.72498783


--------------------------------------------------------------------------------------------------------




----------------------------------------- Iteration    1(   3)  ---------------------------------------


     EDDAV:  cpu time    5.81: real time    5.82
 BZINTS: Fermi energy: -0.008598; 76.000000 electrons
         Band energy:-593.064172;  BLOECHL correction: -0.003754
       DOS:  cpu time    0.05: real time    0.05
    --------------------------------------------
      LOOP:  cpu time    5.87: real time    6.07

 eigenvalue-minimisations  : 20792
 total energy-change (2. order) :-0.1792548E+03  (-0.1645397E+03)
 number of electron      76.0000111 magnetization       0.0000000
 augmentation part       76.0000111 magnetization       0.0000000

 Free energy of the ion-electron system (eV)
  ---------------------------------------------------
  alpha Z        PSCENC =       189.69156926
  Ewald energy   TEWEN  =      -871.68695160
  -1/2 Hartree   DENC   =     -4162.60127002
  -exchange  EXHF       =         0.00000000
  -V(xc)+E(xc)   XCENC  =       191.55174852
  PAW double counting   =      6500.34328232    -6433.33445934
  entropy T*S    EENTRO =         0.00000000
  eigenvalues    EBANDS =      -593.06417154
  atomic energy  EATOM  =      5110.57042958
  ---------------------------------------------------
  free energy    TOTEN  =       -68.52982281 eV

  energy without entropy =      -68.52982281  energy(sigma->0) =      -68.52982281


--------------------------------------------------------------------------------------------------------




----------------------------------------- Iteration    1(   4)  ---------------------------------------


     EDDAV:  cpu time    6.51: real time    6.52
 BZINTS: Fermi energy: -1.928604; 76.000000 electrons
         Band energy:-612.813452;  BLOECHL correction:  0.000000
       DOS:  cpu time    0.01: real time    0.01
    --------------------------------------------
      LOOP:  cpu time    6.53: real time    6.62

 eigenvalue-minimisations  : 23984
 total energy-change (2. order) :-0.1974928E+02  (-0.1923728E+02)
 number of electron      76.0000111 magnetization       0.0000000
 augmentation part       76.0000111 magnetization       0.0000000

 Free energy of the ion-electron system (eV)
  ---------------------------------------------------
  alpha Z        PSCENC =       189.69156926
  Ewald energy   TEWEN  =      -871.68695160
  -1/2 Hartree   DENC   =     -4162.60127002
  -exchange  EXHF       =         0.00000000
  -V(xc)+E(xc)   XCENC  =       191.55174852
  PAW double counting   =      6500.34328232    -6433.33445934
  entropy T*S    EENTRO =         0.00000000
  eigenvalues    EBANDS =      -612.81345249
  atomic energy  EATOM  =      5110.57042958
  ---------------------------------------------------
  free energy    TOTEN  =       -88.27910375 eV

  energy without entropy =      -88.27910375  energy(sigma->0) =      -88.27910375


--------------------------------------------------------------------------------------------------------




----------------------------------------- Iteration    1(   5)  ---------------------------------------


     EDDAV:  cpu time    6.05: real time    6.05
 BZINTS: Fermi energy: -2.300450; 76.000000 electrons
         Band energy:-613.539073;  BLOECHL correction:  0.000000
       DOS:  cpu time    0.01: real time    0.01
    --------------------------------------------
      LOOP:  cpu time    6.06: real time    6.15

 eigenvalue-minimisations  : 22016
 total energy-change (2. order) :-0.7256205E+00  (-0.7188674E+00)
 number of electron      76.0000111 magnetization       0.0000000
 augmentation part       76.0000111 magnetization       0.0000000

 Free energy of the ion-electron system (eV)
  ---------------------------------------------------
  alpha Z        PSCENC =       189.69156926
  Ewald energy   TEWEN  =      -871.68695160
  -1/2 Hartree   DENC   =     -4162.60127002
  -exchange  EXHF       =         0.00000000
  -V(xc)+E(xc)   XCENC  =       191.55174852
  PAW double counting   =      6500.34328232    -6433.33445934
  entropy T*S    EENTRO =         0.00000000
  eigenvalues    EBANDS =      -613.53907299
  atomic energy  EATOM  =      5110.57042958
  ---------------------------------------------------
  free energy    TOTEN  =       -89.00472426 eV

  energy without entropy =      -89.00472426  energy(sigma->0) =      -89.00472426


--------------------------------------------------------------------------------------------------------




----------------------------------------- Iteration    1(   6)  ---------------------------------------


     EDDAV:  cpu time    6.33: real time    6.33
 BZINTS: Fermi energy: -2.302049; 76.000000 electrons
         Band energy:-613.563282;  BLOECHL correction:  0.000000
       DOS:  cpu time    0.01: real time    0.01
    --------------------------------------------
      LOOP:  cpu time    6.34: real time    6.43

 eigenvalue-minimisations  : 23328
 total energy-change (2. order) :-0.2420873E-01  (-0.2416413E-01)
 number of electron      76.0000111 magnetization       0.0000000
 augmentation part       76.0000111 magnetization       0.0000000

 Free energy of the ion-electron system (eV)
  ---------------------------------------------------
  alpha Z        PSCENC =       189.69156926
  Ewald energy   TEWEN  =      -871.68695160
  -1/2 Hartree   DENC   =     -4162.60127002
  -exchange  EXHF       =         0.00000000
  -V(xc)+E(xc)   XCENC  =       191.55174852
  PAW double counting   =      6500.34328232    -6433.33445934
  entropy T*S    EENTRO =         0.00000000
  eigenvalues    EBANDS =      -613.56328172
  atomic energy  EATOM  =      5110.57042958
  ---------------------------------------------------
  free energy    TOTEN  =       -89.02893299 eV

  energy without entropy =      -89.02893299  energy(sigma->0) =      -89.02893299


--------------------------------------------------------------------------------------------------------




----------------------------------------- Iteration    1(   7)  ---------------------------------------


     EDDAV:  cpu time    5.99: real time    5.99
 BZINTS: Fermi energy: -2.350033; 76.000000 electrons
         Band energy:-613.564063;  BLOECHL correction:  0.000000
       DOS:  cpu time    0.01: real time    0.01
    --------------------------------------------
      LOOP:  cpu time    6.00: real time    6.10

 eigenvalue-minimisations  : 21736
 total energy-change (2. order) :-0.7811013E-03  (-0.7807339E-03)
 number of electron      76.0000111 magnetization       0.0000000
 augmentation part       76.0000111 magnetization       0.0000000

 Free energy of the ion-electron system (eV)
  ---------------------------------------------------
  alpha Z        PSCENC =       189.69156926
  Ewald energy   TEWEN  =      -871.68695160
  -1/2 Hartree   DENC   =     -4162.60127002
  -exchange  EXHF       =         0.00000000
  -V(xc)+E(xc)   XCENC  =       191.55174852
  PAW double counting   =      6500.34328232    -6433.33445934
  entropy T*S    EENTRO =         0.00000000
  eigenvalues    EBANDS =      -613.56406282
  atomic energy  EATOM  =      5110.57042958
  ---------------------------------------------------
  free energy    TOTEN  =       -89.02971409 eV

  energy without entropy =      -89.02971409  energy(sigma->0) =      -89.02971409


--------------------------------------------------------------------------------------------------------




----------------------------------------- Iteration    1(   8)  ---------------------------------------


     EDDAV:  cpu time    4.81: real time    4.81
 BZINTS: Fermi energy: -2.308297; 76.000000 electrons
         Band energy:-613.564090;  BLOECHL correction:  0.000000
       DOS:  cpu time    0.01: real time    0.01
    --------------------------------------------
      LOOP:  cpu time    4.82: real time    4.91

 eigenvalue-minimisations  : 15760
 total energy-change (2. order) :-0.2687416E-04  (-0.2686922E-04)
 number of electron      76.0000111 magnetization       0.0000000
 augmentation part       76.0000111 magnetization       0.0000000

 Free energy of the ion-electron system (eV)
  ---------------------------------------------------
  alpha Z        PSCENC =       189.69156926
  Ewald energy   TEWEN  =      -871.68695160
  -1/2 Hartree   DENC   =     -4162.60127002
  -exchange  EXHF       =         0.00000000
  -V(xc)+E(xc)   XCENC  =       191.55174852
  PAW double counting   =      6500.34328232    -6433.33445934
  entropy T*S    EENTRO =         0.00000000
  eigenvalues    EBANDS =      -613.56408970
  atomic energy  EATOM  =      5110.57042958
  ---------------------------------------------------
  free energy    TOTEN  =       -89.02974097 eV

  energy without entropy =      -89.02974097  energy(sigma->0) =      -89.02974097


--------------------------------------------------------------------------------------------------------




 average (electrostatic) potential at core
  the test charge radii are     1.0210  0.7215
  (the norm of the test charge is              1.0000)
       1 -51.9923       2 -51.9923       3 -51.9923       4 -51.9923       5 -76.1686
       6 -76.1686       7 -76.1686       8 -76.1686       9 -76.1686      10 -76.1686
      11 -76.1686      12 -76.1686
 
 
 
 E-fermi :  -2.3083     XC(G=0):  -7.7876     alpha+bet : -6.3575


 spin component 1

 k-point   1 :       0.0000    0.0000    0.0000
  band No.  band energies     occupation 
      1     -20.6556      1.00000
      2     -19.0934      1.00000
      3     -19.0886      1.00000
      4     -19.0867      1.00000
      5     -18.9422      1.00000
      6     -18.9210      1.00000
      7     -18.9048      1.00000
      8     -18.5215      1.00000
      9      -8.6259      1.00000
     10      -8.4309      1.00000
     11      -7.9942      1.00000
     12      -7.5450      1.00000
     13      -7.1219      1.00000
     14      -6.9156      1.00000
     15      -6.4455      1.00000
     16      -6.4198      1.00000
     17      -6.1795      1.00000
     18      -5.8795      1.00000
     19      -5.8757      1.00000
     20      -5.8666      1.00000
     21      -5.7809      1.00000
     22      -5.0849      1.00000
     23      -4.9233      1.00000
     24      -4.7774      1.00000
     25      -4.6381      1.00000
     26      -4.3325      1.00000
     27      -4.1462      1.00000
     28      -4.1228      1.00000
     29      -4.0962      1.00000
     30      -3.4868      1.00000
     31      -3.4281      1.00000
     32      -3.3654      1.00000
     33      -3.3064      1.00000
     34      -3.2838      1.00000
     35      -3.2248      1.00000
     36      -2.9582      1.00000
     37      -2.6603      1.00000
     38      -2.6523      1.00000
     39      -0.1217      0.00000
     40       0.2691      0.00000
     41       0.4466      0.00000
     42       0.5681      0.00000
     43       0.9772      0.00000
     44       1.5082      0.00000
     45       1.7221      0.00000
     46       1.7466      0.00000
     47       1.9694      0.00000
     48       2.0680      0.00000

 k-point   2 :       0.1667   -0.0000   -0.0000
  band No.  band energies     occupation 
      1     -20.5691      1.00000
      2     -19.2515      1.00000
      3     -19.1286      1.00000
      4     -19.0979      1.00000
      5     -18.9024      1.00000
      6     -18.8953      1.00000
      7     -18.8568      1.00000
      8     -18.5395      1.00000
      9      -8.5218      1.00000
     10      -8.3246      1.00000
     11      -7.8991      1.00000
     12      -7.4817      1.00000
     13      -7.0743      1.00000
     14      -6.9251      1.00000
     15      -6.6175      1.00000
     16      -6.3799      1.00000
     17      -6.2107      1.00000
     18      -6.1224      1.00000
     19      -5.9968      1.00000
     20      -5.6680      1.00000
     21      -5.6071      1.00000
     22      -4.9871      1.00000
     23      -4.9704      1.00000
     24      -4.8792      1.00000
     25      -4.8016      1.00000
     26      -4.5812      1.00000
     27      -4.4100      1.00000
     28      -4.2856      1.00000
     29      -3.8592      1.00000
     30      -3.5717      1.00000
     31      -3.4320      1.00000
     32      -3.2699      1.00000
     33      -3.2016      1.00000
     34      -3.1188      1.00000
     35      -3.0562      1.00000
     36      -2.8616      1.00000
     37      -2.7734      1.00000
     38      -2.7230      1.00000
     39      -0.0021      0.00000
     40       0.4099      0.00000
     41       0.4389      0.00000
     42       0.4570      0.00000
     43       0.9722      0.00000
     44       1.4872      0.00000
     45       1.6699      0.00000
     46       1.7154      0.00000
     47       1.9740      0.00000
     48       1.9828      0.00000

 k-point   3 :       0.3333   -0.0000   -0.0000
  band No.  band energies     occupation 
      1     -20.3253      1.00000
      2     -19.5796      1.00000
      3     -19.1824      1.00000
      4     -19.1170      1.00000
      5     -18.8794      1.00000
      6     -18.8491      1.00000
      7     -18.7739      1.00000
      8     -18.5874      1.00000
      9      -8.2752      1.00000
     10      -8.1569      1.00000
     11      -7.7381      1.00000
     12      -7.3398      1.00000
     13      -6.9711      1.00000
     14      -6.7813      1.00000
     15      -6.6353      1.00000
     16      -6.4246      1.00000
     17      -6.2525      1.00000
     18      -6.2343      1.00000
     19      -6.1804      1.00000
     20      -5.6028      1.00000
     21      -5.5881      1.00000
     22      -5.4469      1.00000
     23      -5.2687      1.00000
     24      -5.1528      1.00000
     25      -4.7646      1.00000
     26      -4.6478      1.00000
     27      -4.5328      1.00000
     28      -4.4253      1.00000
     29      -3.7667      1.00000
     30      -3.5825      1.00000
     31      -3.5715      1.00000
     32      -3.4517      1.00000
     33      -3.1523      1.00000
     34      -2.8880      1.00000
     35      -2.8323      1.00000
     36      -2.7496      1.00000
     37      -2.6439      1.00000
     38      -2.4980      1.00000
     39       0.1563      0.00000
     40       0.2724      0.00000
     41       0.3622      0.00000
     42       0.7425      0.00000
     43       0.9525      0.00000
     44       1.4128      0.00000
     45       1.5003      0.00000
     46       1.7298      0.00000
     47       1.7318      0.00000
     48       2.0124      0.00000

 k-point   4 :       0.5000   -0.0000   -0.0000
  band No.  band energies     occupation 
      1     -19.9892      1.00000
      2     -19.9502      1.00000
      3     -19.2036      1.00000
      4     -19.1256      1.00000
      5     -18.8722      1.00000
      6     -18.8282      1.00000
      7     -18.7204      1.00000
      8     -18.6309      1.00000
      9      -8.1205      1.00000
     10      -8.1052      1.00000
     11      -7.6931      1.00000
     12      -7.2687      1.00000
     13      -6.9158      1.00000
     14      -6.5783      1.00000
     15      -6.5455      1.00000
     16      -6.3295      1.00000
     17      -6.2578      1.00000
     18      -6.2076      1.00000
     19      -6.1033      1.00000
     20      -6.0083      1.00000
     21      -5.7367      1.00000
     22      -5.6832      1.00000
     23      -5.5039      1.00000
     24      -5.3886      1.00000
     25      -4.6679      1.00000
     26      -4.5986      1.00000
     27      -4.5742      1.00000
     28      -4.2476      1.00000
     29      -3.9313      1.00000
     30      -3.8525      1.00000
     31      -3.4886      1.00000
     32      -3.4711      1.00000
     33      -3.1253      1.00000
     34      -2.8761      1.00000
     35      -2.7413      1.00000
     36      -2.6300      1.00000
     37      -2.4373      1.00000
     38      -2.3582      1.00000
     39      -0.0436      0.00000
     40       0.2981      0.00000
     41       0.4491      0.00000
     42       0.9381      0.00000
     43       0.9930      0.00000
     44       1.3021      0.00000
     45       1.4433      0.00000
     46       1.5188      0.00000
     47       1.7499      0.00000
     48       2.0162      0.00000

 k-point   5 :       0.0000    0.1667    0.0000
  band No.  band energies     occupation 
      1     -20.5690      1.00000
      2     -19.2493      1.00000
      3     -19.1157      1.00000
      4     -19.1120      1.00000
      5     -18.9002      1.00000
      6     -18.8995      1.00000
      7     -18.8547      1.00000
      8     -18.5411      1.00000
      9      -8.4867      1.00000
     10      -8.3068      1.00000
     11      -7.8614      1.00000
     12      -7.4658      1.00000
     13      -7.1623      1.00000
     14      -6.8759      1.00000
     15      -6.6682      1.00000
     16      -6.5561      1.00000
     17      -6.2731      1.00000
     18      -6.1159      1.00000
     19      -6.0500      1.00000
     20      -5.6145      1.00000
     21      -5.4688      1.00000
     22      -5.0616      1.00000
     23      -5.0151      1.00000
     24      -4.8315      1.00000
     25      -4.8026      1.00000
     26      -4.4470      1.00000
     27      -4.2393      1.00000
     28      -4.1054      1.00000
     29      -4.0057      1.00000
     30      -3.6150      1.00000
     31      -3.4523      1.00000
     32      -3.3817      1.00000
     33      -3.2384      1.00000
     34      -3.1373      1.00000
     35      -3.0178      1.00000
     36      -2.8621      1.00000
     37      -2.7994      1.00000
     38      -2.6608      1.00000
     39      -0.1041      0.00000
     40       0.2447      0.00000
     41       0.4647      0.00000
     42       0.5524      0.00000
     43       1.1050      0.00000
     44       1.5450      0.00000
     45       1.6875      0.00000
     46       1.7262      0.00000
     47       1.9425      0.00000
     48       1.9681      0.00000

 k-point   6 :       0.1667    0.1667    0.0000
  band No.  band energies     occupation 
      1     -20.4037      1.00000
      2     -19.3691      1.00000
      3     -19.3689      1.00000
      4     -19.0047      1.00000
      5     -18.9259      1.00000
      6     -18.8190      1.00000
      7     -18.8149      1.00000
      8     -18.5748      1.00000
      9      -8.3155      1.00000
     10      -8.1432      1.00000
     11      -7.7171      1.00000
     12      -7.3575      1.00000
     13      -7.1174      1.00000
     14      -6.8118      1.00000
     15      -6.7519      1.00000
     16      -6.6343      1.00000
     17      -6.3383      1.00000
     18      -6.2466      1.00000
     19      -5.9054      1.00000
     20      -5.7693      1.00000
     21      -5.3555      1.00000
     22      -5.3169      1.00000
     23      -5.1384      1.00000
     24      -4.9147      1.00000
     25      -4.7436      1.00000
     26      -4.6778      1.00000
     27      -4.5381      1.00000
     28      -4.3166      1.00000
     29      -3.9568      1.00000
     30      -3.6126      1.00000
     31      -3.3972      1.00000
     32      -3.2860      1.00000
     33      -3.2371      1.00000
     34      -3.0753      1.00000
     35      -2.8530      1.00000
     36      -2.7615      1.00000
     37      -2.7123      1.00000
     38      -2.5632      1.00000
     39       0.0103      0.00000
     40       0.2534      0.00000
     41       0.5020      0.00000
     42       0.5541      0.00000
     43       1.1030      0.00000
     44       1.5136      0.00000
     45       1.5941      0.00000
     46       1.7038      0.00000
     47       1.7994      0.00000
     48       1.9782      0.00000

 k-point   7 :       0.3333    0.1667    0.0000
  band No.  band energies     occupation 
      1     -20.1042      1.00000
      2     -19.7286      1.00000
      3     -19.4382      1.00000
      4     -18.9827      1.00000
      5     -18.9032      1.00000
      6     -18.7890      1.00000
      7     -18.7449      1.00000
      8     -18.6293      1.00000
      9      -8.1026      1.00000
     10      -8.0379      1.00000
     11      -7.6314      1.00000
     12      -7.2414      1.00000
     13      -7.0250      1.00000
     14      -6.6213      1.00000
     15      -6.6135      1.00000
     16      -6.4881      1.00000
     17      -6.4854      1.00000
     18      -6.3343      1.00000
     19      -5.9562      1.00000
     20      -5.9342      1.00000
     21      -5.6791      1.00000
     22      -5.6596      1.00000
     23      -5.3074      1.00000
     24      -5.1277      1.00000
     25      -4.6456      1.00000
     26      -4.6244      1.00000
     27      -4.6218      1.00000
     28      -4.2586      1.00000
     29      -4.1534      1.00000
     30      -3.7764      1.00000
     31      -3.5035      1.00000
     32      -3.2734      1.00000
     33      -3.1324      1.00000
     34      -3.0326      1.00000
     35      -2.7972      1.00000
     36      -2.5579      1.00000
     37      -2.4857      1.00000
     38      -2.3676      1.00000
     39       0.0837      0.00000
     40       0.2397      0.00000
     41       0.4276      0.00000
     42       0.7548      0.00000
     43       1.0945      0.00000
     44       1.3941      0.00000
     45       1.5149      0.00000
     46       1.5638      0.00000
     47       1.7335      0.00000
     48       1.9964      0.00000

 k-point   8 :       0.5000    0.1667    0.0000
  band No.  band energies     occupation 
      1     -20.1040      1.00000
      2     -19.7290      1.00000
      3     -19.4383      1.00000
      4     -18.9823      1.00000
      5     -18.9039      1.00000
      6     -18.7889      1.00000
      7     -18.7448      1.00000
      8     -18.6293      1.00000
      9      -8.1026      1.00000
     10      -8.0377      1.00000
     11      -7.6314      1.00000
     12      -7.2414      1.00000
     13      -7.0247      1.00000
     14      -6.6216      1.00000
     15      -6.6143      1.00000
     16      -6.4878      1.00000
     17      -6.4856      1.00000
     18      -6.3341      1.00000
     19      -5.9561      1.00000
     20      -5.9345      1.00000
     21      -5.6782      1.00000
     22      -5.6594      1.00000
     23      -5.3084      1.00000
     24      -5.1282      1.00000
     25      -4.6449      1.00000
     26      -4.6238      1.00000
     27      -4.6221      1.00000
     28      -4.2577      1.00000
     29      -4.1504      1.00000
     30      -3.7785      1.00000
     31      -3.5052      1.00000
     32      -3.2727      1.00000
     33      -3.1324      1.00000
     34      -3.0341      1.00000
     35      -2.7975      1.00000
     36      -2.5565      1.00000
     37      -2.4843      1.00000
     38      -2.3694      1.00000
     39       0.0831      0.00000
     40       0.2316      0.00000
     41       0.4343      0.00000
     42       0.7551      0.00000
     43       1.0947      0.00000
     44       1.3932      0.00000
     45       1.5141      0.00000
     46       1.5596      0.00000
     47       1.7321      0.00000
     48       1.9921      0.00000

 k-point   9 :      -0.3333    0.1667    0.0000
  band No.  band energies     occupation 
      1     -20.4036      1.00000
      2     -19.3694      1.00000
      3     -19.3691      1.00000
      4     -19.0032      1.00000
      5     -18.9283      1.00000
      6     -18.8187      1.00000
      7     -18.8141      1.00000
      8     -18.5747      1.00000
      9      -8.3154      1.00000
     10      -8.1428      1.00000
     11      -7.7171      1.00000
     12      -7.3574      1.00000
     13      -7.1168      1.00000
     14      -6.8126      1.00000
     15      -6.7521      1.00000
     16      -6.6349      1.00000
     17      -6.3375      1.00000
     18      -6.2474      1.00000
     19      -5.9070      1.00000
     20      -5.7680      1.00000
     21      -5.3553      1.00000
     22      -5.3162      1.00000
     23      -5.1381      1.00000
     24      -4.9159      1.00000
     25      -4.7438      1.00000
     26      -4.6766      1.00000
     27      -4.5341      1.00000
     28      -4.3165      1.00000
     29      -3.9557      1.00000
     30      -3.6141      1.00000
     31      -3.3971      1.00000
     32      -3.2928      1.00000
     33      -3.2348      1.00000
     34      -3.0759      1.00000
     35      -2.8520      1.00000
     36      -2.7574      1.00000
     37      -2.7136      1.00000
     38      -2.5653      1.00000
     39       0.0049      0.00000
     40       0.2512      0.00000
     41       0.5044      0.00000
     42       0.5558      0.00000
     43       1.1036      0.00000
     44       1.5137      0.00000
     45       1.5933      0.00000
     46       1.7000      0.00000
     47       1.8044      0.00000
     48       1.9691      0.00000

 k-point  10 :      -0.1667    0.1667    0.0000
  band No.  band energies     occupation 
      1     -20.5689      1.00000
      2     -19.2492      1.00000
      3     -19.1161      1.00000
      4     -19.1116      1.00000
      5     -18.9017      1.00000
      6     -18.8992      1.00000
      7     -18.8535      1.00000
      8     -18.5410      1.00000
      9      -8.4867      1.00000
     10      -8.3066      1.00000
     11      -7.8614      1.00000
     12      -7.4657      1.00000
     13      -7.1619      1.00000
     14      -6.8766      1.00000
     15      -6.6685      1.00000
     16      -6.5557      1.00000
     17      -6.2725      1.00000
     18      -6.1177      1.00000
     19      -6.0507      1.00000
     20      -5.6135      1.00000
     21      -5.4672      1.00000
     22      -5.0630      1.00000
     23      -5.0153      1.00000
     24      -4.8298      1.00000
     25      -4.8028      1.00000
     26      -4.4467      1.00000
     27      -4.2372      1.00000
     28      -4.1058      1.00000
     29      -4.0057      1.00000
     30      -3.6160      1.00000
     31      -3.4528      1.00000
     32      -3.3839      1.00000
     33      -3.2383      1.00000
     34      -3.1417      1.00000
     35      -3.0119      1.00000
     36      -2.8563      1.00000
     37      -2.8033      1.00000
     38      -2.6635      1.00000
     39      -0.1059      0.00000
     40       0.2437      0.00000
     41       0.4649      0.00000
     42       0.5530      0.00000
     43       1.1053      0.00000
     44       1.5446      0.00000
     45       1.6882      0.00000
     46       1.7233      0.00000
     47       1.9423      0.00000
     48       1.9688      0.00000

 k-point  11 :       0.0000    0.3333    0.0000
  band No.  band energies     occupation 
      1     -20.3246      1.00000
      2     -19.5788      1.00000
      3     -19.1504      1.00000
      4     -19.1487      1.00000
      5     -18.8661      1.00000
      6     -18.8650      1.00000
      7     -18.7658      1.00000
      8     -18.5957      1.00000
      9      -8.1316      1.00000
     10      -7.9805      1.00000
     11      -7.6042      1.00000
     12      -7.3444      1.00000
     13      -7.2307      1.00000
     14      -7.0080      1.00000
     15      -6.8382      1.00000
     16      -6.6540      1.00000
     17      -6.5377      1.00000
     18      -6.3064      1.00000
     19      -6.0802      1.00000
     20      -5.4954      1.00000
     21      -5.4788      1.00000
     22      -5.2000      1.00000
     23      -5.0774      1.00000
     24      -5.0734      1.00000
     25      -4.6853      1.00000
     26      -4.5269      1.00000
     27      -4.4350      1.00000
     28      -4.2548      1.00000
     29      -3.9995      1.00000
     30      -3.7794      1.00000
     31      -3.5440      1.00000
     32      -3.2886      1.00000
     33      -3.2407      1.00000
     34      -2.9964      1.00000
     35      -2.8695      1.00000
     36      -2.6454      1.00000
     37      -2.6359      1.00000
     38      -2.5098      1.00000
     39      -0.1692      0.00000
     40       0.0373      0.00000
     41       0.5733      0.00000
     42       0.6043      0.00000
     43       1.3834      0.00000
     44       1.6077      0.00000
     45       1.6314      0.00000
     46       1.7038      0.00000
     47       1.7698      0.00000
     48       1.8641      0.00000

 k-point  12 :       0.1667    0.3333    0.0000
  band No.  band energies     occupation 
      1     -20.1033      1.00000
      2     -19.7290      1.00000
      3     -19.4363      1.00000
      4     -18.9839      1.00000
      5     -18.9017      1.00000
      6     -18.7970      1.00000
      7     -18.7290      1.00000
      8     -18.6407      1.00000
      9      -7.9861      1.00000
     10      -7.8539      1.00000
     11      -7.5320      1.00000
     12      -7.3149      1.00000
     13      -7.1254      1.00000
     14      -6.9527      1.00000
     15      -6.9120      1.00000
     16      -6.6265      1.00000
     17      -6.5107      1.00000
     18      -6.4046      1.00000
     19      -5.9428      1.00000
     20      -5.6615      1.00000
     21      -5.6479      1.00000
     22      -5.5141      1.00000
     23      -5.1515      1.00000
     24      -4.8419      1.00000
     25      -4.7545      1.00000
     26      -4.7149      1.00000
     27      -4.5526      1.00000
     28      -4.2765      1.00000
     29      -4.1278      1.00000
     30      -3.7037      1.00000
     31      -3.6319      1.00000
     32      -3.3140      1.00000
     33      -3.0963      1.00000
     34      -2.9783      1.00000
     35      -2.8908      1.00000
     36      -2.5661      1.00000
     37      -2.4498      1.00000
     38      -2.3733      1.00000
     39      -0.0572      0.00000
     40       0.0604      0.00000
     41       0.5587      0.00000
     42       0.5792      0.00000
     43       1.3899      0.00000
     44       1.5697      0.00000
     45       1.5956      0.00000
     46       1.6216      0.00000
     47       1.6941      0.00000
     48       1.9050      0.00000

 k-point  13 :       0.3333    0.3333    0.0000
  band No.  band energies     occupation 
      1     -19.7955      1.00000
      2     -19.7830      1.00000
      3     -19.7706      1.00000
      4     -18.9200      1.00000
      5     -18.9181      1.00000
      6     -18.7475      1.00000
      7     -18.7152      1.00000
      8     -18.6835      1.00000
      9      -7.8977      1.00000
     10      -7.8279      1.00000
     11      -7.5448      1.00000
     12      -7.2934      1.00000
     13      -7.0835      1.00000
     14      -6.8142      1.00000
     15      -6.7890      1.00000
     16      -6.6788      1.00000
     17      -6.4783      1.00000
     18      -6.3796      1.00000
     19      -6.0846      1.00000
     20      -5.9449      1.00000
     21      -5.6406      1.00000
     22      -5.5328      1.00000
     23      -5.1549      1.00000
     24      -5.0138      1.00000
     25      -4.8422      1.00000
     26      -4.5149      1.00000
     27      -4.5014      1.00000
     28      -4.3845      1.00000
     29      -4.1218      1.00000
     30      -3.7409      1.00000
     31      -3.5649      1.00000
     32      -3.4422      1.00000
     33      -3.1193      1.00000
     34      -3.0222      1.00000
     35      -2.8475      1.00000
     36      -2.4205      1.00000
     37      -2.3764      1.00000
     38      -2.3679      1.00000
     39       0.2283      0.00000
     40       0.2321      0.00000
     41       0.3685      0.00000
     42       0.4061      0.00000
     43       1.3921      0.00000
     44       1.4929      0.00000
     45       1.5106      0.00000
     46       1.6293      0.00000
     47       1.7205      0.00000
     48       1.9241      0.00000

 k-point  14 :       0.5000    0.3333    0.0000
  band No.  band energies     occupation 
      1     -20.1029      1.00000
      2     -19.7288      1.00000
      3     -19.4370      1.00000
      4     -18.9847      1.00000
      5     -18.9014      1.00000
      6     -18.7968      1.00000
      7     -18.7288      1.00000
      8     -18.6405      1.00000
      9      -7.9860      1.00000
     10      -7.8533      1.00000
     11      -7.5316      1.00000
     12      -7.3157      1.00000
     13      -7.1242      1.00000
     14      -6.9523      1.00000
     15      -6.9128      1.00000
     16      -6.6252      1.00000
     17      -6.5125      1.00000
     18      -6.4064      1.00000
     19      -5.9427      1.00000
     20      -5.6611      1.00000
     21      -5.6468      1.00000
     22      -5.5130      1.00000
     23      -5.1510      1.00000
     24      -4.8436      1.00000
     25      -4.7547      1.00000
     26      -4.7148      1.00000
     27      -4.5485      1.00000
     28      -4.2752      1.00000
     29      -4.1277      1.00000
     30      -3.7037      1.00000
     31      -3.6334      1.00000
     32      -3.3165      1.00000
     33      -3.0975      1.00000
     34      -2.9776      1.00000
     35      -2.8902      1.00000
     36      -2.5655      1.00000
     37      -2.4479      1.00000
     38      -2.3766      1.00000
     39      -0.0650      0.00000
     40       0.0554      0.00000
     41       0.5624      0.00000
     42       0.5825      0.00000
     43       1.3915      0.00000
     44       1.5680      0.00000
     45       1.5945      0.00000
     46       1.6206      0.00000
     47       1.6920      0.00000
     48       1.9024      0.00000

 k-point  15 :      -0.3333    0.3333   -0.0000
  band No.  band energies     occupation 
      1     -20.3243      1.00000
      2     -19.5784      1.00000
      3     -19.1513      1.00000
      4     -19.1493      1.00000
      5     -18.8655      1.00000
      6     -18.8653      1.00000
      7     -18.7652      1.00000
      8     -18.5956      1.00000
      9      -8.1315      1.00000
     10      -7.9799      1.00000
     11      -7.6041      1.00000
     12      -7.3456      1.00000
     13      -7.2290      1.00000
     14      -7.0079      1.00000
     15      -6.8382      1.00000
     16      -6.6559      1.00000
     17      -6.5364      1.00000
     18      -6.3087      1.00000
     19      -6.0807      1.00000
     20      -5.4939      1.00000
     21      -5.4779      1.00000
     22      -5.1984      1.00000
     23      -5.0769      1.00000
     24      -5.0735      1.00000
     25      -4.6833      1.00000
     26      -4.5279      1.00000
     27      -4.4340      1.00000
     28      -4.2548      1.00000
     29      -3.9988      1.00000
     30      -3.7800      1.00000
     31      -3.5461      1.00000
     32      -3.2875      1.00000
     33      -3.2423      1.00000
     34      -2.9950      1.00000
     35      -2.8704      1.00000
     36      -2.6466      1.00000
     37      -2.6328      1.00000
     38      -2.5134      1.00000
     39      -0.1753      0.00000
     40       0.0337      0.00000
     41       0.5749      0.00000
     42       0.6064      0.00000
     43       1.3846      0.00000
     44       1.6057      0.00000
     45       1.6330      0.00000
     46       1.6992      0.00000
     47       1.7676      0.00000
     48       1.8659      0.00000

 k-point  16 :      -0.1667    0.3333   -0.0000
  band No.  band energies     occupation 
      1     -20.4033      1.00000
      2     -19.3687      1.00000
      3     -19.3662      1.00000
      4     -19.0083      1.00000
      5     -18.9258      1.00000
      6     -18.8198      1.00000
      7     -18.8107      1.00000
      8     -18.5791      1.00000
      9      -8.1936      1.00000
     10      -8.0702      1.00000
     11      -7.6679      1.00000
     12      -7.3431      1.00000
     13      -7.2939      1.00000
     14      -6.9311      1.00000
     15      -6.7622      1.00000
     16      -6.5791      1.00000
     17      -6.5749      1.00000
     18      -6.3653      1.00000
     19      -6.1432      1.00000
     20      -5.4759      1.00000
     21      -5.4629      1.00000
     22      -5.1804      1.00000
     23      -5.1173      1.00000
     24      -4.7546      1.00000
     25      -4.7300      1.00000
     26      -4.5632      1.00000
     27      -4.3103      1.00000
     28      -4.1622      1.00000
     29      -3.9556      1.00000
     30      -3.7351      1.00000
[...]
     39      -0.0227      0.00000
     40       0.0371      0.00000
     41       0.4710      0.00000
     42       0.5244      0.00000
     43       1.5309      0.00000
     44       1.5860      0.00000
     45       1.6004      0.00000
     46       1.6966      0.00000
     47       1.7263      0.00000
     48       1.8221      0.00000

 k-point  76 :       0.5000    0.5000    0.5000
  band No.  band energies     occupation 
      1     -19.9685      1.00000
      2     -19.9685      1.00000
      3     -19.1655      1.00000
      4     -19.1655      1.00000
      5     -18.8515      1.00000
      6     -18.8515      1.00000
      7     -18.6754      1.00000
      8     -18.6754      1.00000
      9      -7.7235      1.00000
     10      -7.7235      1.00000
     11      -7.5991      1.00000
     12      -7.5991      1.00000
     13      -7.0493      1.00000
     14      -7.0493      1.00000
     15      -6.9015      1.00000
     16      -6.9015      1.00000
     17      -6.4599      1.00000
     18      -6.4599      1.00000
     19      -5.7991      1.00000
     20      -5.7991      1.00000
     21      -5.4885      1.00000
     22      -5.4885      1.00000
     23      -5.0535      1.00000
     24      -5.0535      1.00000
     25      -4.5905      1.00000
     26      -4.5905      1.00000
     27      -4.4263      1.00000
     28      -4.4263      1.00000
     29      -4.0117      1.00000
     30      -4.0117      1.00000
     31      -3.3898      1.00000
     32      -3.3898      1.00000
     33      -3.0835      1.00000
     34      -3.0834      1.00000
     35      -2.6828      1.00000
     36      -2.6828      1.00000
     37      -2.3973      1.00000
     38      -2.3973      1.00000
     39      -0.1857      0.00000
     40      -0.1857      0.00000
     41       0.6490      0.00000
     42       0.6490      0.00000
     43       1.5850      0.00000
     44       1.5851      0.00000
     45       1.6292      0.00000
     46       1.6300      0.00000
     47       1.7624      0.00000
     48       1.7632      0.00000


--------------------------------------------------------------------------------------------------------


 soft charge-density along one line, spin component           1
         0         1         2         3         4         5         6         7         8         9
 total charge-density along one line
 
 soft charge-density along one line, spin component           2
         0         1         2         3         4         5         6         7         8         9
 total charge-density along one line
 
 pseudopotential strength for first ion, spin component:           1
-12.316  -0.029   0.017  -0.822  -0.030 -12.815  -0.029   0.018
 -0.029 -11.986  -0.002  -0.000  -0.850  -0.029 -12.479  -0.003
  0.017  -0.002 -12.937  -0.008   0.007   0.018  -0.003 -13.452
 -0.822  -0.000  -0.008 -11.993   0.075  -0.842  -0.000  -0.009
 -0.030  -0.850   0.007   0.075 -12.282  -0.031  -0.869   0.007
-12.815  -0.029   0.018  -0.842  -0.031 -13.297  -0.030   0.019
 -0.029 -12.479  -0.003  -0.000  -0.869  -0.030 -12.954  -0.003
  0.018  -0.003 -13.452  -0.009   0.007   0.019  -0.003 -13.956
 -0.842  -0.000  -0.009 -12.486   0.077  -0.866  -0.001  -0.009
 -0.031  -0.869   0.007   0.077 -12.780  -0.031  -0.895   0.007
 -0.000  -0.001  -0.004  -0.002  -0.000  -0.000  -0.001  -0.004
 -0.000  -0.002  -0.007  -0.004  -0.000  -0.000  -0.002  -0.007
 -0.000  -0.000  -0.000   0.000  -0.000  -0.000  -0.000  -0.000
  0.000   0.000  -0.000  -0.000  -0.000   0.000   0.000  -0.000
 -0.000   0.000   0.000  -0.000  -0.000  -0.000   0.000   0.000
 -0.000  -0.000  -0.000   0.000  -0.000  -0.000  -0.000  -0.000
  0.000   0.000  -0.000  -0.000  -0.000   0.000   0.000  -0.000
 -0.000   0.000   0.000  -0.000  -0.000  -0.000   0.000   0.000
 pseudopotential strength for first ion, spin component:           2
 -8.364   0.019  -0.012   0.648   0.017  -8.835   0.019  -0.012
  0.019  -8.477  -0.009   0.013   0.675   0.019  -8.950  -0.009
 -0.012  -0.009  -7.724  -0.011  -0.004  -0.012  -0.009  -8.187
  0.648   0.013  -0.011  -8.458  -0.063   0.658   0.013  -0.011
  0.017   0.675  -0.004  -0.063  -8.382   0.017   0.684  -0.004
 -8.835   0.019  -0.012   0.658   0.017  -9.275   0.020  -0.012
  0.019  -8.950  -0.009   0.013   0.684   0.020  -9.392  -0.009
 -0.012  -0.009  -8.187  -0.011  -0.004  -0.012  -0.009  -8.616
  0.658   0.013  -0.011  -8.931  -0.064   0.670   0.014  -0.012
  0.017   0.684  -0.004  -0.064  -8.854   0.017   0.697  -0.004
 -0.003   0.002  -0.024   0.004  -0.002  -0.003   0.002  -0.025
 -0.006   0.005  -0.047   0.008  -0.003  -0.006   0.005  -0.048
 -0.000  -0.000  -0.000   0.000  -0.000  -0.000  -0.000  -0.000
  0.000   0.000  -0.000  -0.000  -0.000   0.000   0.000  -0.000
 -0.000   0.000   0.000  -0.000  -0.000  -0.000   0.000   0.000
 -0.000  -0.000  -0.000   0.000  -0.000  -0.000  -0.000  -0.000
  0.000   0.000  -0.000  -0.000  -0.000   0.000   0.000  -0.000
 -0.000   0.000   0.000  -0.000  -0.000  -0.000   0.000   0.000
 total augmentation occupancy for first ion, spin component:           1
  1.200   0.000   0.000   0.000   0.000   0.000   0.000   0.000   0.000   0.000   0.000   0.000   0.000   0.000   0.000   0.000
  0.000   1.200   0.000   0.000   0.000   0.000   0.000   0.000   0.000   0.000   0.000   0.000   0.000   0.000   0.000   0.000
  0.000   0.000   1.200   0.000   0.000   0.000   0.000   0.000   0.000   0.000   0.000   0.000   0.000   0.000   0.000   0.000
  0.000   0.000   0.000   1.200   0.000   0.000   0.000   0.000   0.000   0.000   0.000   0.000   0.000   0.000   0.000   0.000
  0.000   0.000   0.000   0.000   1.200   0.000   0.000   0.000   0.000   0.000   0.000   0.000   0.000   0.000   0.000   0.000
  0.000   0.000   0.000   0.000   0.000   0.000   0.000   0.000   0.000   0.000   0.000   0.000   0.000   0.000   0.000   0.000
  0.000   0.000   0.000   0.000   0.000   0.000   0.000   0.000   0.000   0.000   0.000   0.000   0.000   0.000   0.000   0.000
  0.000   0.000   0.000   0.000   0.000   0.000   0.000   0.000   0.000   0.000   0.000   0.000   0.000   0.000   0.000   0.000
  0.000   0.000   0.000   0.000   0.000   0.000   0.000   0.000   0.000   0.000   0.000   0.000   0.000   0.000   0.000   0.000
  0.000   0.000   0.000   0.000   0.000   0.000   0.000   0.000   0.000   0.000   0.000   0.000   0.000   0.000   0.000   0.000
  0.000   0.000   0.000   0.000   0.000   0.000   0.000   0.000   0.000   0.000   1.000   0.000   0.000   0.000   0.000   0.000
  0.000   0.000   0.000   0.000   0.000   0.000   0.000   0.000   0.000   0.000   0.000   0.000   0.000   0.000   0.000   0.000
  0.000   0.000   0.000   0.000   0.000   0.000   0.000   0.000   0.000   0.000   0.000   0.000   0.000   0.000   0.000   0.000
  0.000   0.000   0.000   0.000   0.000   0.000   0.000   0.000   0.000   0.000   0.000   0.000   0.000   0.000   0.000   0.000
  0.000   0.000   0.000   0.000   0.000   0.000   0.000   0.000   0.000   0.000   0.000   0.000   0.000   0.000   0.000   0.000
  0.000   0.000   0.000   0.000   0.000   0.000   0.000   0.000   0.000   0.000   0.000   0.000   0.000   0.000   0.000   0.000
  0.000   0.000   0.000   0.000   0.000   0.000   0.000   0.000   0.000   0.000   0.000   0.000   0.000   0.000   0.000   0.000
  0.000   0.000   0.000   0.000   0.000   0.000   0.000   0.000   0.000   0.000   0.000   0.000   0.000   0.000   0.000   0.000
 total augmentation occupancy for first ion, spin component:           2
  0.686   0.000   0.000   0.000   0.000   0.000   0.000   0.000   0.000   0.000   0.000   0.000   0.000   0.000   0.000   0.000
  0.000   0.686   0.000   0.000   0.000   0.000   0.000   0.000   0.000   0.000   0.000   0.000   0.000   0.000   0.000   0.000
  0.000   0.000   0.686   0.000   0.000   0.000   0.000   0.000   0.000   0.000   0.000   0.000   0.000   0.000   0.000   0.000
  0.000   0.000   0.000   0.686   0.000   0.000   0.000   0.000   0.000   0.000   0.000   0.000   0.000   0.000   0.000   0.000
  0.000   0.000   0.000   0.000   0.686   0.000   0.000   0.000   0.000   0.000   0.000   0.000   0.000   0.000   0.000   0.000
  0.000   0.000   0.000   0.000   0.000   0.000   0.000   0.000   0.000   0.000   0.000   0.000   0.000   0.000   0.000   0.000
  0.000   0.000   0.000   0.000   0.000   0.000   0.000   0.000   0.000   0.000   0.000   0.000   0.000   0.000   0.000   0.000
  0.000   0.000   0.000   0.000   0.000   0.000   0.000   0.000   0.000   0.000   0.000   0.000   0.000   0.000   0.000   0.000
  0.000   0.000   0.000   0.000   0.000   0.000   0.000   0.000   0.000   0.000   0.000   0.000   0.000   0.000   0.000   0.000
  0.000   0.000   0.000   0.000   0.000   0.000   0.000   0.000   0.000   0.000   0.000   0.000   0.000   0.000   0.000   0.000
  0.000   0.000   0.000   0.000   0.000   0.000   0.000   0.000   0.000   0.000   0.571   0.000   0.000   0.000   0.000   0.000
  0.000   0.000   0.000   0.000   0.000   0.000   0.000   0.000   0.000   0.000   0.000   0.000   0.000   0.000   0.000   0.000
  0.000   0.000   0.000   0.000   0.000   0.000   0.000   0.000   0.000   0.000   0.000   0.000   0.000   0.000   0.000   0.000
  0.000   0.000   0.000   0.000   0.000   0.000   0.000   0.000   0.000   0.000   0.000   0.000   0.000   0.000   0.000   0.000
  0.000   0.000   0.000   0.000   0.000   0.000   0.000   0.000   0.000   0.000   0.000   0.000   0.000   0.000   0.000   0.000
  0.000   0.000   0.000   0.000   0.000   0.000   0.000   0.000   0.000   0.000   0.000   0.000   0.000   0.000   0.000   0.000
  0.000   0.000   0.000   0.000   0.000   0.000   0.000   0.000   0.000   0.000   0.000   0.000   0.000   0.000   0.000   0.000
  0.000   0.000   0.000   0.000   0.000   0.000   0.000   0.000   0.000   0.000   0.000   0.000   0.000   0.000   0.000   0.000


------------------------ aborting loop because EDIFF is reached ----------------------------------------


 


 total charge     
 
# of ion     s       p       d       tot
----------------------------------------
  1        0.364   0.575   4.843   5.781
  2        0.364   0.575   4.843   5.781
  3        0.364   0.575   4.843   5.781
  4        0.364   0.575   4.843   5.781
  5        1.578   3.398   0.000   4.976
  6        1.578   3.398   0.000   4.976
  7        1.578   3.398   0.000   4.976
  8        1.578   3.398   0.000   4.976
  9        1.578   3.398   0.000   4.976
 10        1.578   3.398   0.000   4.976
 11        1.578   3.398   0.000   4.976
 12        1.578   3.398   0.000   4.976
------------------------------------------------
tot       14.076  29.483  19.372  62.930
 


 magnetization (x)
 
# of ion     s       p       d       tot
----------------------------------------
  1        0.015   0.024   3.048   3.087
  2        0.015   0.024   3.048   3.087
  3       -0.015  -0.024  -3.048  -3.087
  4       -0.015  -0.024  -3.048  -3.087
  5        0.001  -0.033   0.000  -0.033
  6        0.001  -0.033   0.000  -0.033
  7        0.001  -0.033   0.000  -0.033
  8        0.001  -0.033   0.000  -0.033
  9       -0.001   0.033   0.000   0.033
 10       -0.001   0.033   0.000   0.033
 11       -0.001   0.033   0.000   0.033
 12       -0.001   0.033   0.000   0.033
------------------------------------------------
tot        0.000   0.000  -0.000  -0.000
 
    CHARGE:  cpu time    0.20: real time    0.20
    FORLOC:  cpu time    0.00: real time    0.00
    FORNL :  cpu time    1.11: real time    1.11
    STRESS:  cpu time    1.46: real time    1.46
    FORCOR:  cpu time    0.02: real time    0.02
    FORHAR:  cpu time    0.00: real time    0.00

  FORCE on cell =-STRESS in cart. coord.  units (eV):
  Direction    XX          YY          ZZ          XY          YZ          ZX
  --------------------------------------------------------------------------------------
  Alpha Z   189.69157   189.69157   189.69157
  Ewald    2342.38923  2345.44299 -5559.52523    -1.87066   -12.25766   -41.67984
  Hartree  3517.22600  3518.15642 -2872.45794    -0.56473   -10.59402   -34.78780
  E(xc)    -370.04305  -370.03646  -369.07765    -0.01263    -0.00892    -0.01051
  Local   -6889.05360 -6892.57011  7346.78301     2.03822    23.30656    77.07287
  n-local  -253.50817  -253.23447  -265.30211    -0.23419     0.11764     0.15974
  augment   172.23151   171.98305   178.29135     0.23163    -0.10565    -0.16310
  Kinetic  1290.96591  1290.44981  1351.42417     0.37842    -0.43563    -0.64167
  Fock        0.00000     0.00000     0.00000     0.00000     0.00000     0.00000
  -------------------------------------------------------------------------------------
  Total      -0.10061    -0.11721    -0.17284    -0.03394     0.02233    -0.05031
  in kB      -0.80345    -0.93601    -1.38031    -0.27105     0.17831    -0.40180
  external pressure =       -1.04 kB  Pullay stress =        0.00 kB


 VOLUME and BASIS-vectors are now :
 -----------------------------------------------------------------------------
  energy-cutoff  :      520.00
  volume of cell :      200.62
      direct lattice vectors                 reciprocal lattice vectors
     5.742664680  0.120056527 -0.031734710     0.172101809  0.104095754  0.025850338
    -2.973541556  4.914181885  0.007984859    -0.004316442  0.200914956 -0.021009332
    -1.480738404  0.703015562  7.027251475     0.000782108  0.000241797  0.142443758

  length of vectors
     5.744007163  5.743796370  7.215890825     0.202788556  0.202056535  0.142446110


 FORCES acting on ions
    electron-ion (+dipol)            ewald-force                    non-local-force                 convergence-correction
 -----------------------------------------------------------------------------------------------
   0.177E-06 -.817E-07 0.544E-06   -.174E-05 0.806E-06 -.544E-05   -.120E-20 0.540E-22 -.262E-21   0.214E-05 -.952E-06 0.141E-04
   0.177E-06 -.817E-07 0.544E-06   -.174E-05 0.806E-06 -.544E-05   -.119E-20 -.493E-21 -.126E-20   0.214E-05 -.952E-06 0.141E-04
   0.177E-06 -.817E-07 0.544E-06   -.174E-05 0.806E-06 -.544E-05   -.496E-21 0.529E-21 0.588E-21   0.214E-05 -.952E-06 0.141E-04
   0.177E-06 -.817E-07 0.544E-06   -.174E-05 0.806E-06 -.544E-05   -.208E-20 0.137E-20 -.152E-21   0.214E-05 -.952E-06 0.141E-04
   -.272E+01 -.930E+00 -.449E+03   0.283E+01 0.959E+00 0.474E+03   -.124E+00 -.229E-01 -.259E+02   0.385E-02 -.359E-02 0.878E-02
   0.272E+01 0.930E+00 0.449E+03   -.283E+01 -.959E+00 -.474E+03   0.124E+00 0.229E-01 0.259E+02   -.387E-02 0.360E-02 -.868E-02
   -.272E+01 -.930E+00 -.449E+03   0.283E+01 0.959E+00 0.474E+03   -.124E+00 -.229E-01 -.259E+02   0.408E-02 -.414E-02 0.883E-02
   0.272E+01 0.930E+00 0.449E+03   -.283E+01 -.959E+00 -.474E+03   0.124E+00 0.229E-01 0.259E+02   -.410E-02 0.415E-02 -.873E-02
   -.272E+01 -.930E+00 -.449E+03   0.283E+01 0.959E+00 0.474E+03   -.124E+00 -.229E-01 -.259E+02   0.385E-02 -.359E-02 0.878E-02
   0.272E+01 0.930E+00 0.449E+03   -.283E+01 -.959E+00 -.474E+03   0.124E+00 0.229E-01 0.259E+02   -.387E-02 0.360E-02 -.868E-02
   -.272E+01 -.930E+00 -.449E+03   0.283E+01 0.959E+00 0.474E+03   -.124E+00 -.229E-01 -.259E+02   0.408E-02 -.414E-02 0.883E-02
   0.272E+01 0.930E+00 0.449E+03   -.283E+01 -.959E+00 -.474E+03   0.124E+00 0.229E-01 0.259E+02   -.410E-02 0.415E-02 -.873E-02
 -----------------------------------------------------------------------------------------------
   0.680E-04 -.327E-04 -.402E-03   -.111E-13 -.288E-13 0.568E-13   -.278E-16 -.139E-16 0.000E+00   -.635E-04 0.307E-04 0.483E-03
 
 
 POSITION                                       TOTAL-FORCE (eV/Angst)
 -----------------------------------------------------------------------------------
      0.00000      0.00000      0.00000        -0.000000     -0.000000      0.000000
     -1.48677      2.45709      0.00399        -0.000000     -0.000000      0.000000
      2.87133      0.06003     -0.01587        -0.000000     -0.000000     -0.000000
      1.38456      2.51712     -0.01187        -0.000000     -0.000000      0.000000
     -1.51677      4.11552      0.95821        -0.006698      0.002025      0.015626
      2.80515      1.62174      6.04529         0.006698     -0.002025     -0.015626
     -0.03000      1.65843      0.95422        -0.006698      0.002025      0.015626
      1.31838      4.07883      6.04929         0.006698     -0.002025     -0.015626
      1.35456      4.17555      0.94234        -0.006698      0.002025      0.015626
     -0.06618      1.56171      6.06116         0.006698     -0.002025     -0.015626
      2.84133      1.71845      0.93835        -0.006698      0.002025      0.015626
     -1.55295      4.01880      6.06515         0.006698     -0.002025     -0.015626
 -----------------------------------------------------------------------------------
    total drift:                                0.000004     -0.000002      0.000080


--------------------------------------------------------------------------------------------------------



  FREE ENERGIE OF THE ION-ELECTRON SYSTEM (eV)
  ---------------------------------------------------
  free  energy   TOTEN  =       -89.02974097 eV

  energy  without entropy=      -89.02974097  energy(sigma->0) =      -89.02974097
 


--------------------------------------------------------------------------------------------------------


    POTLOK:  cpu time    0.03: real time    0.03


--------------------------------------------------------------------------------------------------------


     LOOP+:  cpu time   48.44: real time   49.71
    4ORBIT:  cpu time    0.00: real time    0.00
 


 total charge     
 
# of ion     s       p       d       tot
----------------------------------------
  1        0.364   0.575   4.843   5.781
  2        0.364   0.575   4.843   5.781
  3        0.364   0.575   4.843   5.781
  4        0.364   0.575   4.843   5.781
  5        1.578   3.398   0.000   4.976
  6        1.578   3.398   0.000   4.976
  7        1.578   3.398   0.000   4.976
  8        1.578   3.398   0.000   4.976
  9        1.578   3.398   0.000   4.976
 10        1.578   3.398   0.000   4.976
 11        1.578   3.398   0.000   4.976
 12        1.578   3.398   0.000   4.976
------------------------------------------------
tot       14.076  29.483  19.372  62.930
 


 magnetization (x)
 
# of ion     s       p       d       tot
----------------------------------------
  1        0.015   0.024   3.048   3.087
  2        0.015   0.024   3.048   3.087
  3       -0.015  -0.024  -3.048  -3.087
  4       -0.015  -0.024  -3.048  -3.087
  5        0.001  -0.033   0.000  -0.033
  6        0.001  -0.033   0.000  -0.033
  7        0.001  -0.033   0.000  -0.033
  8        0.001  -0.033   0.000  -0.033
  9       -0.001   0.033   0.000   0.033
 10       -0.001   0.033   0.000   0.033
 11       -0.001   0.033   0.000   0.033
 12       -0.001   0.033   0.000   0.033
------------------------------------------------
tot        0.000   0.000  -0.000  -0.000
 
 BZINTS: Fermi energy: -2.308297; 76.000000 electrons
         Band energy:-613.564090;  BLOECHL correction:  0.000000

 total amount of memory used by VASP on root node    83472. kBytes
========================================================================

   base      :      30000. kBytes
   nonl-proj :      30382. kBytes
   fftplans  :        673. kBytes
   grid      :       1662. kBytes
   one-center:         93. kBytes
   wavefun   :      20662. kBytes
 
  
  
 General timing and accounting informations for this job:
 ========================================================
  
                  Total CPU time used (sec):       53.494
                            User time (sec):       52.916
                          System time (sec):        0.578
                         Elapsed time (sec):       56.877
  
                   Maximum memory used (kb):      164508.
                   Average memory used (kb):           0.
  
                          Minor page faults:        15266
                          Major page faults:            0
                 Voluntary context switches:         3208
