 vasp.5.3.3 18Dez12 (build May 12 2016 12:04:25) complex                        
  
 executed on             LinuxIFC date 2019.05.05  18:00:00
 running on   64 total cores
 distrk:  each k-point on   64 cores,    1 groups
 distr:  one band on NCORES_PER_BAND=   8 cores,    8 groups


--------------------------------------------------------------------------------------------------------


 INCAR:
 POTCAR:   PAW_PBE O_s 07Sep2000                  
 POTCAR:   PAW_PBE Mn 06Sep2000                   
 POTCAR:   PAW_PBE H 15Jun2001                    
 POTCAR:   PAW_PBE O_s 07Sep2000                  
  local pseudopotential read in
  atomic valenz-charges read in
  non local Contribution for L=           0  read in
    real space projection operators read in
  non local Contribution for L=           0  read in
    real space projection operators read in
  non local Contribution for L=           1  read in
    real space projection operators read in
  non local Contribution for L=           1  read in
    real space projection operators read in
    PAW grid and wavefunctions read in
 
   number of l-projection  operators is LMAX  =           4
   number of lm-projection operators is LMMAX =           8
 
 POTCAR:   PAW_PBE Mn 06Sep2000                   
  local pseudopotential read in
  partial core-charges read in
  atomic valenz-charges read in
  non local Contribution for L=           2  read in
    real space projection operators read in
  non local Contribution for L=           2  read in
    real space projection operators read in
  non local Contribution for L=           0  read in
    real space projection operators read in
  non local Contribution for L=           0  read in
    real space projection operators read in
  non local Contribution for L=           1  read in
    real space projection operators read in
  non local Contribution for L=           1  read in
    real space projection operators read in
    PAW grid and wavefunctions read in
 
   number of l-projection  operators is LMAX  =           6
   number of lm-projection operators is LMMAX =          18
 
 POTCAR:   PAW_PBE H 15Jun2001                    
  local pseudopotential read in
  atomic valenz-charges read in
  non local Contribution for L=           0  read in
    real space projection operators read in
  non local Contribution for L=           0  read in
    real space projection operators read in
  non local Contribution for L=           1  read in
    real space projection operators read in
    PAW grid and wavefunctions read in
 
   number of l-projection  operators is LMAX  =           3
   number of lm-projection operators is LMMAX =           5
 

 ----------------------------------------------------------------------------- 
|                                                                             |
|  ADVICE TO THIS USER RUNNING 'VASP/VAMP'   (HEAR YOUR MASTER'S VOICE ...):  |
|                                                                             |
|      You have a (more or less) 'large supercell' and for larger cells       |
|      it might be more efficient to use real space projection operators      |
|      So try LREAL= Auto  in the INCAR   file.                               |
|      Mind: If you want to do a very accurate calculations keep the          |
|      reciprocal projection scheme          (i.e. LREAL=.FALSE.)             |
|                                                                             |
 ----------------------------------------------------------------------------- 

 PAW_PBE O_s 07Sep2000                  :
 energy of atom  1       EATOM= -432.2909
 kinetic energy error for atom=    0.0182 (will be added to EATOM!!)
 PAW_PBE Mn 06Sep2000                   :
 energy of atom  2       EATOM= -416.8732
 kinetic energy error for atom=    0.0155 (will be added to EATOM!!)
 PAW_PBE H 15Jun2001                    :
 energy of atom  3       EATOM=  -12.4884
 kinetic energy error for atom=    0.0156 (will be added to EATOM!!)
 
 
 POSCAR: Mn12 O25 H  (P1) ~ POSCAR (VASP)        
  positions in direct lattice
  velocities in cartesian coordinates
  No initial velocities read in
 exchange correlation table for  LEXCH =        8
   RHO(1)=    0.500       N(1)  =     2000
   RHO(2)=  100.500       N(2)  =     4000
 


--------------------------------------------------------------------------------------------------------


 ion  position               nearest neighbor table
   1  0.000  0.500  0.348-  30 1.90  30 1.90  26 1.90
   2  0.000  0.500  0.566-  31 1.88  31 1.88  27 1.91
   3  0.000  0.500  0.784-  28 1.91
   4  0.500  0.797  0.148-  32 1.94  32 1.94  29 1.99  25 2.01
   5  0.500  0.203  0.148-  32 1.94  32 1.94  29 1.99  25 2.01
   6  0.500  0.805  0.391-  33 1.88  33 1.88  30 1.91
   7  0.500  0.195  0.391-  33 1.88  33 1.88  30 1.91
   8  0.500  0.805  0.609-  34 1.88  34 1.88  31 1.91
   9  0.500  0.195  0.609-  34 1.88  34 1.88  31 1.91
  10  0.000  0.500  0.214-  29 1.85  29 1.85  26 1.95
  11  0.000  0.500  0.434-  30 1.88  30 1.88  27 1.91
  12  0.000  0.500  0.651-  31 1.88  31 1.88  28 1.91
  13  0.000  0.000  0.233-  35 1.91  35 1.91  32 2.17
  14  0.000  0.000  0.458-  36 1.88  36 1.88  33 1.91
  15  0.000  0.000  0.675-  37 1.88  37 1.88  34 1.91
  16  0.500  0.304  0.280-  26 1.89  26 1.89  35 1.90
  17  0.500  0.696  0.280-  26 1.89  26 1.89  35 1.90
  18  0.500  0.305  0.500-  27 1.88  27 1.88  36 1.91
  19  0.500  0.695  0.500-  27 1.88  27 1.88  36 1.91
  20  0.500  0.305  0.717-  28 1.88  28 1.88  37 1.91
  21  0.500  0.695  0.717-  28 1.88  28 1.88  37 1.91
  22  0.000  0.000  0.322-  35 1.93  35 1.93  33 1.99
  23  0.000  0.000  0.542-  36 1.88  36 1.88  34 1.91
  24  0.000  0.000  0.760-  37 1.88  37 1.88
  25  0.500  0.500  0.121-  38 0.93  29 1.51   5 2.01   4 2.01
  26  0.000  0.500  0.282-  16 1.89  17 1.89  16 1.89  17 1.89   1 1.90  10 1.95
  27  0.000  0.500  0.500-  19 1.88  19 1.88  18 1.88  18 1.88   2 1.91  11 1.91
  28  0.000  0.500  0.717-  21 1.88  21 1.88  20 1.88  20 1.88   3 1.91  12 1.91
  29  0.500  0.500  0.173-  25 1.51  10 1.85  10 1.85   5 1.99   4 1.99
  30  0.500  0.500  0.391-  11 1.88  11 1.88   1 1.90   1 1.90   7 1.91   6 1.91
  31  0.500  0.500  0.609-   2 1.88   2 1.88  12 1.88  12 1.88   9 1.91   8 1.91
  32  0.000  0.000  0.158-   4 1.94   4 1.94   5 1.94   5 1.94  13 2.17
  33  0.000  0.000  0.391-   6 1.88   6 1.88   7 1.88   7 1.88  14 1.91  22 1.99
  34  0.000  0.000  0.609-   8 1.88   8 1.88   9 1.88   9 1.88  23 1.91  15 1.91
  35  0.500  0.000  0.277-  16 1.90  17 1.90  13 1.91  13 1.91  22 1.93  22 1.93
  36  0.500  0.000  0.500-  14 1.88  23 1.88  14 1.88  23 1.88  18 1.91  19 1.91
  37  0.500  0.000  0.717-  24 1.88  24 1.88  15 1.88  15 1.88  20 1.91  21 1.91
  38  0.450  0.450  0.091-  25 0.93
 
  LATTYP: Found a simple orthorhombic cell.
 ALAT       =     2.8699998900
 B/A-ratio  =     2.1779862019
 C/A-ratio  =    10.0182792969
  
  Lattice vectors:
  
 A1 = (   2.8699998900,   0.0000000000,   0.0000000000)
 A2 = (   0.0000000000,   6.2508201600,   0.0000000000)
 A3 = (   0.0000000000,   0.0000000000,  28.7524604800)


Analysis of symmetry for initial positions (statically):
=====================================================================
 Subroutine PRICEL returns:
 Original cell was already a primitive cell.
 

 Routine SETGRP: Setting up the symmetry group for a 
 simple orthorhombic supercell.


 Subroutine GETGRP returns: Found  1 space group operations
 (whereof  1 operations were pure point group operations)
 out of a pool of  8 trial point group operations.


The static configuration has the point symmetry C_1 .


Analysis of symmetry for dynamics (positions and initial velocities):
=====================================================================
 Subroutine PRICEL returns:
 Original cell was already a primitive cell.
 

 Routine SETGRP: Setting up the symmetry group for a 
 simple orthorhombic supercell.


 Subroutine GETGRP returns: Found  1 space group operations
 (whereof  1 operations were pure point group operations)
 out of a pool of  8 trial point group operations.


The dynamic configuration has the point symmetry C_1 .


Analysis of constrained symmetry for selective dynamics:
=====================================================================
 Subroutine PRICEL returns:
 Original cell was already a primitive cell.
 

 Routine SETGRP: Setting up the symmetry group for a 
 simple orthorhombic supercell.


 Subroutine GETGRP returns: Found  1 space group operations
 (whereof  1 operations were pure point group operations)
 out of a pool of  8 trial point group operations.


The constrained configuration has the point symmetry C_1 .


Analysis of magnetic symmetry:
=====================================================================

 Subroutine MAGSYM returns: Found  1 space group operations
 (whereof  1 operations were pure point group operations)
 out of a pool of  1 trial space group operations
 (whereof  1 operations were pure point group operations)
 and found also     1 'primitive' translations


The magnetic configuration has the point symmetry C_1 .


 irot  :   1
 --------------------------------------------------------------------
 isymop:   1   0   0
           0   1   0
           0   0   1

 gtrans:     0.0000000     0.0000000     0.0000000

 ptrans:     0.0000000     0.0000000     0.0000000
 rotmap:
 (   1->   1)  (   2->   2)  (   3->   3)  (   4->   4)  (   5->   5) 
 (   6->   6)  (   7->   7)  (   8->   8)  (   9->   9)  (  10->  10) 
 (  11->  11)  (  12->  12)  (  13->  13)  (  14->  14)  (  15->  15) 
 (  16->  16)  (  17->  17)  (  18->  18)  (  19->  19)  (  20->  20) 
 (  21->  21)  (  22->  22)  (  23->  23)  (  24->  24)  (  25->  25) 
 (  26->  26)  (  27->  27)  (  28->  28)  (  29->  29)  (  30->  30) 
 (  31->  31)  (  32->  32)  (  33->  33)  (  34->  34)  (  35->  35) 
 (  36->  36)  (  37->  37)  (  38->  38) 
 
 
 KPOINTS: Automatic mesh                          

Automatic generation of k-mesh.
Space group operators:
 irot       det(A)        alpha          n_x          n_y          n_z        tau_x        tau_y        tau_z
    1     1.000000     0.000000     1.000000     0.000000     0.000000     0.000000     0.000000     0.000000
 
 Subroutine IBZKPT returns following result:
 ===========================================
 
 Found      2 irreducible k-points:
 
 Following reciprocal coordinates:
            Coordinates               Weight
  0.000000  0.000000  0.000000      1.000000
  0.500000  0.000000  0.000000      1.000000
 
 Following cartesian coordinates:
            Coordinates               Weight
  0.000000  0.000000  0.000000      1.000000
  0.174216  0.000000  0.000000      1.000000
 


--------------------------------------------------------------------------------------------------------




 Dimension of arrays:
   k-points           NKPTS =      2   k-points in BZ     NKDIM =      2   number of bands    NBANDS=    144
   number of dos      NEDOS =    301   number of ions     NIONS =     38
   non local maximal  LDIM  =      6   non local SUM 2l+1 LMDIM =     18
   total plane-waves  NPLWV =  58800
   max r-space proj   IRMAX =      1   max aug-charges    IRDMAX=   4390
   dimension x,y,z NGX =    14 NGY =   30 NGZ =  140
   dimension x,y,z NGXF=    28 NGYF=   60 NGZF=  280
   support grid    NGXF=    28 NGYF=   60 NGZF=  280
   ions per type =              25  12   1
 NGX,Y,Z   is equivalent  to a cutoff of   8.11,  7.98,  8.09 a.u.
 NGXF,Y,Z  is equivalent  to a cutoff of  16.22, 15.96, 16.19 a.u.


 I would recommend the setting:
   dimension x,y,z NGX =    13 NGY =   29 NGZ =  135
 SYSTEM =  Mn12 O25 H  (P1) ~ POSCAR (VASP)        
 POSCAR =  Mn12 O25 H  (P1) ~ POSCAR (VASP)        

 Startparameter for this run:
   NWRITE =      1    write-flag & timer
   PREC   = normal    normal or accurate (medium, high low for compatibility)
   ISTART =      0    job   : 0-new  1-cont  2-samecut
   ICHARG =      2    charge: 1-file 2-atom 10-const
   ISPIN  =      2    spin polarized calculation?
   LNONCOLLINEAR =      F non collinear calculations
   LSORBIT =      F    spin-orbit coupling
   INIWAV =      1    electr: 0-lowe 1-rand  2-diag
   LASPH  =      F    aspherical Exc in radial PAW
   METAGGA=      F    non-selfconsistent MetaGGA calc.

 Electronic Relaxation 1
   ENCUT  =  367.7 eV  27.02 Ry    5.20 a.u.   4.49  9.77 44.95*2*pi/ulx,y,z
   ENINI  =  367.7     initial cutoff
   ENAUG  =  500.7 eV  augmentation charge cutoff
   NELM   =     60;   NELMIN=  2; NELMDL= -5     # of ELM steps 
   EDIFF  = 0.1E-03   stopping-criterion for ELM
   LREAL  =      F    real-space projection
   NLSPLINE    = F    spline interpolate recip. space projectors
   LCOMPAT=      F    compatible to vasp.4.4
   GGA_COMPAT  = T    GGA compatible to vasp.4.4-vasp.4.6
   LMAXPAW     = -100 max onsite density
   LMAXMIX     =    4 max onsite mixed and CHGCAR
   VOSKOWN=      1    Vosko Wilk Nusair interpolation
   ROPT   =    0.00000   0.00000   0.00000
 Ionic relaxation
   EDIFFG = 0.1E-02   stopping-criterion for IOM
   NSW    =    100    number of steps for IOM
   NBLOCK =      1;   KBLOCK =    100    inner block; outer block 
   IBRION =      2    ionic relax: 0-MD 1-quasi-New 2-CG
   NFREE  =      1    steps in history (QN), initial steepest desc. (CG)
   ISIF   =      2    stress and relaxation
   IWAVPR =     11    prediction:  0-non 1-charg 2-wave 3-comb
   ISYM   =      2    0-nonsym 1-usesym 2-fastsym
   LCORR  =      T    Harris-Foulkes like correction to forces

   POTIM  = 0.5000    time-step for ionic-motion
   TEIN   =    0.0    initial temperature
   TEBEG  =    0.0;   TEEND  =   0.0 temperature during run
   SMASS  =  -3.00    Nose mass-parameter (am)
   estimated Nose-frequenzy (Omega)   =  0.10E-29 period in steps =****** mass=  -0.188E-27a.u.
   SCALEE = 1.0000    scale energy and forces
   NPACO  =    256;   APACO  = 16.0  distance and # of slots for P.C.
   PSTRESS=    0.0 pullay stress

  Mass of Ions in am
   POMASS =  16.00 54.94  1.00
  Ionic Valenz
   ZVAL   =   6.00  7.00  1.00
  Atomic Wigner-Seitz radii
   RWIGS  =  -1.00 -1.00 -1.00
  virtual crystal weights 
   VCA    =   1.00  1.00  1.00
   NELECT =     235.0000    total number of electrons
   NUPDOWN=      -1.0000    fix difference up-down

 DOS related values:
   EMIN   =  10.00;   EMAX   =-10.00  energy-range for DOS
   EFERMI =   0.00
   ISMEAR =     1;   SIGMA  =   0.20  broadening in eV -4-tet -1-fermi 0-gaus

 Electronic relaxation 2 (details)
   IALGO  =     38    algorithm
   LDIAG  =      T    sub-space diagonalisation (order eigenvalues)
   LSUBROT=      T    optimize rotation matrix (better conditioning)
   TURBO    =      0    0=normal 1=particle mesh
   IRESTART =      0    0=no restart 2=restart with 2 vectors
   NREBOOT  =      0    no. of reboots
   NMIN     =      0    reboot dimension
   EREF     =   0.00    reference energy to select bands
   IMIX   =      4    mixing-type and parameters
     AMIX     =   0.40;   BMIX     =  1.00
     AMIX_MAG =   1.60;   BMIX_MAG =  1.00
     AMIN     =   0.10
     WC   =   100.;   INIMIX=   1;  MIXPRE=   1;  MAXMIX= -45

 Intra band minimization:
   WEIMIN = 0.0010     energy-eigenvalue tresh-hold
   EBREAK =  0.17E-06  absolut break condition
   DEPER  =   0.30     relativ break condition  

   TIME   =   0.40     timestep for ELM

  volume/ion in A,a.u.               =      13.57        91.60
  Fermi-wavevector in a.u.,A,eV,Ry     =   1.259697  2.380482 21.590227  1.586837
  Thomas-Fermi vector in A             =   2.393244
 
 Write flags
   LWAVE  =      F    write WAVECAR
   LCHARG =      F    write CHGCAR
   LVTOT  =      F    write LOCPOT, total local potential
   LVHAR  =      F    write LOCPOT, Hartree potential only
   LELF   =      F    write electronic localiz. function (ELF)
   LORBIT =      0    0 simple, 1 ext, 2 COOP (PROOUT)


 Dipole corrections
   LMONO  =      F    monopole corrections only (constant potential shift)
   LDIPOL =      F    correct potential (dipole corrections)
   IDIPOL =      0    1-x, 2-y, 3-z, 4-all directions 
   EPSILON=  1.0000000 bulk dielectric constant

 LDA+U is selected, type is set to LDAUTYPE =  2
   angular momentum for each species LDAUL =    -1    2   -1
   U (eV)           for each species LDAUU =   0.0  3.9  0.0
   J (eV)           for each species LDAUJ =   0.0  0.0  0.0
 Exchange correlation treatment:
   GGA     =    --    GGA type
   LEXCH   =     8    internal setting for exchange type
   VOSKOWN=      1    Vosko Wilk Nusair interpolation
   LHFCALC =     F    Hartree Fock is set to
   LHFONE  =     F    Hartree Fock one center treatment
   AEXX    =    0.0000 exact exchange contribution

 Linear response parameters
   LEPSILON=     F    determine dielectric tensor
   LRPA    =     F    only Hartree local field effects (RPA)
   LNABLA  =     F    use nabla operator in PAW spheres
   LVEL    =     F    velocity operator in full k-point grid
   LINTERFAST=   F  fast interpolation
   KINTER  =     0    interpolate to denser k-point grid
   CSHIFT  =0.1000    complex shift for real part using Kramers Kronig
   OMEGAMAX=  -1.0    maximum frequency
   DEG_THRESHOLD= 0.2000000E-02 threshold for treating states as degnerate
   RTIME   =    0.100 relaxation time in fs

 Orbital magnetization related:
   ORBITALMAG=     F  switch on orbital magnetization
   LCHIMAG   =     F  perturbation theory with respect to B field
   DQ        =  0.001000  dq finite difference perturbation B field



--------------------------------------------------------------------------------------------------------


 conjugate gradient relaxation of ions
   using selective dynamics as specified on POSCAR
 charge density and potential will be updated during run
 spin polarized calculation
 Variant of blocked Davidson
 Davidson routine will perform the subspace rotation
 perform sub-space diagonalisation
    after iterative eigenvector-optimisation
 modified Broyden-mixing scheme, WC =      100.0
 initial mixing is a Kerker type mixing with AMIX =  0.4000 and BMIX =      1.0000
 Hartree-type preconditioning will be used
 using additional bands           26
 reciprocal scheme for non local part
 use partial core corrections
 calculate Harris-corrections to forces 
   (improved forces if not selfconsistent)
 use gradient corrections 
 use of overlap-Matrix (Vanderbilt PP)
 Methfessel and Paxton  Order N= 1 SIGMA  =   0.20


--------------------------------------------------------------------------------------------------------


  energy-cutoff  :      367.69
  volume of cell :      515.81
      direct lattice vectors                 reciprocal lattice vectors
     2.869999890  0.000000000  0.000000000     0.348432069  0.000000000  0.000000000
     0.000000000  6.250820160  0.000000000     0.000000000  0.159979007  0.000000000
     0.000000000  0.000000000 28.752460480     0.000000000  0.000000000  0.034779632

  length of vectors
     2.869999890  6.250820160 28.752460480     0.348432069  0.159979007  0.034779632


 
 k-points in units of 2pi/SCALE and weight: Automatic mesh                          
   0.00000000  0.00000000  0.00000000       0.500
   0.17421603  0.00000000  0.00000000       0.500
 
 k-points in reciprocal lattice and weights: Automatic mesh                          
   0.00000000  0.00000000  0.00000000       0.500
   0.50000000  0.00000000  0.00000000       0.500
 
 position of ions in fractional coordinates (direct lattice) 
   0.00000000  0.50000000  0.34799520
   0.00000000  0.50000000  0.56625954
   0.00000000  0.50000000  0.78366076
   0.50000000  0.79669797  0.14830040
   0.50000000  0.20330204  0.14830040
   0.50000000  0.80478003  0.39129939
   0.50000000  0.19521999  0.39129939
   0.50000000  0.80478003  0.60870061
   0.50000000  0.19521999  0.60870061
   0.00000000  0.50000000  0.21399965
   0.00000000  0.50000000  0.43374043
   0.00000000  0.50000000  0.65114169
   0.00000000  0.00000000  0.23298401
   0.00000000  0.00000000  0.45755892
   0.00000000  0.00000000  0.67496015
   0.50000000  0.30358565  0.27973219
   0.50000000  0.69641435  0.27973219
   0.50000000  0.30478001  0.50000000
   0.50000000  0.69521997  0.50000000
   0.50000000  0.30478001  0.71740123
   0.50000000  0.69521997  0.71740123
   0.00000000  0.00000000  0.32210182
   0.00000000  0.00000000  0.54244108
   0.00000000  0.00000000  0.75984230
   0.50000000  0.50000000  0.12100010
   0.00000000  0.50000000  0.28178492
   0.00000000  0.50000000  0.50000000
   0.00000000  0.50000000  0.71740123
   0.50000000  0.50000000  0.17349385
   0.50000000  0.50000000  0.39129939
   0.50000000  0.50000000  0.60870061
   0.00000000  0.00000000  0.15751265
   0.00000000  0.00000000  0.39129939
   0.00000000  0.00000000  0.60870061
   0.50000000  0.00000000  0.27706799
   0.50000000  0.00000000  0.50000000
   0.50000000  0.00000000  0.71740123
   0.45000001  0.45000000  0.09102100
 
 position of ions in cartesian coordinates  (Angst):
   0.00000000  3.12541008 10.00571824
   0.00000000  3.12541008 16.28135505
   0.00000000  3.12541008 22.53217503
   1.43499994  4.98001573  4.26400139
   1.43499994  1.27080449  4.26400139
   1.43499994  5.03053524 11.25082025
   1.43499994  1.22028505 11.25082025
   1.43499994  5.03053524 17.50164023
   1.43499994  1.22028505 17.50164023
   0.00000000  3.12541008  6.15301648
   0.00000000  3.12541008 12.47110457
   0.00000000  3.12541008 18.72192571
   0.00000000  0.00000000  6.69886354
   0.00000000  0.00000000 13.15594476
   0.00000000  0.00000000 19.40676504
   1.43499994  1.89765930  8.04298874
   1.43499994  4.35316086  8.04298874
   1.43499994  1.90512503 14.37623024
   1.43499994  4.34569500 14.37623024
   1.43499994  1.90512503 20.62705051
   1.43499994  4.34569500 20.62705051
   0.00000000  0.00000000  9.26121985
   0.00000000  0.00000000 15.59651572
   0.00000000  0.00000000 21.84733570
   1.43499994  3.12541008  3.47905059
   0.00000000  3.12541008  8.10200978
   0.00000000  3.12541008 14.37623024
   0.00000000  3.12541008 20.62705051
   1.43499994  3.12541008  4.98837507
   1.43499994  3.12541008 11.25082025
   1.43499994  3.12541008 17.50164023
   0.00000000  0.00000000  4.52887624
   0.00000000  0.00000000 11.25082025
   0.00000000  0.00000000 17.50164023
   1.43499994  0.00000000  7.96638643
   1.43499994  0.00000000 14.37623024
   1.43499994  0.00000000 20.62705051
   1.29149998  2.81286907  2.61707771
 


--------------------------------------------------------------------------------------------------------


 k-point  1 :   0.0000 0.0000 0.0000  plane waves:    8319
 k-point  2 :   0.5000 0.0000 0.0000  plane waves:    8204

 maximum and minimum number of plane-waves per node :      1052     1021

 maximum number of plane-waves:      8319
 maximum index in each direction: 
   IXMAX=    4   IYMAX=    9   IZMAX=   44
   IXMIN=   -4   IYMIN=   -9   IZMIN=  -44

 WARNING: aliasing errors must be expected set NGX to  18 to avoid them
 WARNING: aliasing errors must be expected set NGY to  38 to avoid them
 WARNING: aliasing errors must be expected set NGZ to 178 to avoid them
 aliasing errors are usually negligible using standard VASP settings
 and one can safely disregard these warnings

 parallel 3D FFT for wavefunctions:
    minimum data exchange during FFTs selected (reduces bandwidth)
 parallel 3D FFT for charge:
    minimum data exchange during FFTs selected (reduces bandwidth)


 total amount of memory used by VASP on root node    35847. kBytes
========================================================================

   base      :      30000. kBytes
   nonl-proj :       1507. kBytes
   fftplans  :        772. kBytes
   grid      :       2160. kBytes
   one-center:        155. kBytes
   wavefun   :       1253. kBytes
 
 Broyden mixing: mesh for mixing (old mesh)
   NGX =  9   NGY = 19   NGZ = 89
  (NGX  = 28   NGY  = 60   NGZ  =280)
  gives a total of  15219 points

 initial charge density was supplied:
 charge density of overlapping atoms calculated
 number of electron     235.0000000 magnetization       0.0000000
 keeping initial charge density in first step


--------------------------------------------------------------------------------------------------------


 Maximum index for augmentation-charges          308 (set IRDMAX)


--------------------------------------------------------------------------------------------------------


 First call to EWALD:  gamma=   0.221
 Maximum number of real-space cells 7x 3x 1
 Maximum number of reciprocal cells 1x 2x 9

 FEWALD executed in parallel
    FEWALD:  cpu time    0.00: real time    0.00


----------------------------------------- Iteration    1(   1)  ---------------------------------------


    POTLOK:  cpu time    0.04: real time    0.04
    SETDIJ:  cpu time    0.01: real time    0.01
     EDDAV:  cpu time    0.50: real time    0.50
       DOS:  cpu time    0.00: real time    0.00
    --------------------------------------------
      LOOP:  cpu time    0.55: real time    0.62

 eigenvalue-minimisations  :  1152
 total energy-change (2. order) : 0.3079679E+04  (-0.8362267E+04)
 number of electron     235.0000000 magnetization      -0.0000000
 augmentation part      235.0000000 magnetization      -0.0000000

 Free energy of the ion-electron system (eV)
  ---------------------------------------------------
  alpha Z        PSCENC =       638.80268190
  Ewald energy   TEWEN  =     53873.73811462
  -1/2 Hartree   DENC   =    -69699.58424655
  -exchange  EXHF       =         0.00000000
  -V(xc)+E(xc)   XCENC  =       564.46502544
  PAW double counting   =     11200.09724383   -11040.26764092
  entropy T*S    EENTRO =        -0.01517593
  eigenvalues    EBANDS =      1720.85858514
  atomic energy  EATOM  =     15821.58433428
  ---------------------------------------------------
  free energy    TOTEN  =      3079.67892182 eV

  energy without entropy =     3079.69409774  energy(sigma->0) =     3079.68398046


--------------------------------------------------------------------------------------------------------




----------------------------------------- Iteration    1(   2)  ---------------------------------------


     EDDAV:  cpu time    0.49: real time    0.49
       DOS:  cpu time    0.00: real time    0.00
    --------------------------------------------
      LOOP:  cpu time    0.49: real time    0.59

 eigenvalue-minimisations  :  1160
 total energy-change (2. order) :-0.2724462E+04  (-0.2594317E+04)
 number of electron     235.0000000 magnetization      -0.0000000
 augmentation part      235.0000000 magnetization      -0.0000000

 Free energy of the ion-electron system (eV)
  ---------------------------------------------------
  alpha Z        PSCENC =       638.80268190
  Ewald energy   TEWEN  =     53873.73811462
  -1/2 Hartree   DENC   =    -69699.58424655
  -exchange  EXHF       =         0.00000000
  -V(xc)+E(xc)   XCENC  =       564.46502544
  PAW double counting   =     11200.09724383   -11040.26764092
  entropy T*S    EENTRO =        -0.00407654
  eigenvalues    EBANDS =     -1003.61429804
  atomic energy  EATOM  =     15821.58433428
  ---------------------------------------------------
  free energy    TOTEN  =       355.21713803 eV

  energy without entropy =      355.22121457  energy(sigma->0) =      355.21849688


--------------------------------------------------------------------------------------------------------




----------------------------------------- Iteration    1(   3)  ---------------------------------------


     EDDAV:  cpu time    0.62: real time    0.62
       DOS:  cpu time    0.00: real time    0.00
    --------------------------------------------
      LOOP:  cpu time    0.63: real time    0.72

 eigenvalue-minimisations  :  1632
 total energy-change (2. order) :-0.6365059E+03  (-0.6071046E+03)
 number of electron     235.0000000 magnetization      -0.0000000
 augmentation part      235.0000000 magnetization      -0.0000000

 Free energy of the ion-electron system (eV)
  ---------------------------------------------------
  alpha Z        PSCENC =       638.80268190
  Ewald energy   TEWEN  =     53873.73811462
  -1/2 Hartree   DENC   =    -69699.58424655
  -exchange  EXHF       =         0.00000000
  -V(xc)+E(xc)   XCENC  =       564.46502544
  PAW double counting   =     11200.09724383   -11040.26764092
  entropy T*S    EENTRO =        -0.01087084
  eigenvalues    EBANDS =     -1640.11342922
  atomic energy  EATOM  =     15821.58433428
  ---------------------------------------------------
  free energy    TOTEN  =      -281.28878745 eV

  energy without entropy =     -281.27791661  energy(sigma->0) =     -281.28516384


--------------------------------------------------------------------------------------------------------




----------------------------------------- Iteration    1(   4)  ---------------------------------------


     EDDAV:  cpu time    0.67: real time    0.67
       DOS:  cpu time    0.00: real time    0.00
    --------------------------------------------
      LOOP:  cpu time    0.67: real time    0.77

 eigenvalue-minimisations  :  1808
 total energy-change (2. order) :-0.6713521E+02  (-0.6557252E+02)
 number of electron     235.0000000 magnetization      -0.0000000
 augmentation part      235.0000000 magnetization      -0.0000000

 Free energy of the ion-electron system (eV)
  ---------------------------------------------------
  alpha Z        PSCENC =       638.80268190
  Ewald energy   TEWEN  =     53873.73811462
  -1/2 Hartree   DENC   =    -69699.58424655
  -exchange  EXHF       =         0.00000000
  -V(xc)+E(xc)   XCENC  =       564.46502544
  PAW double counting   =     11200.09724383   -11040.26764092
  entropy T*S    EENTRO =        -0.05327198
  eigenvalues    EBANDS =     -1707.20623342
  atomic energy  EATOM  =     15821.58433428
  ---------------------------------------------------
  free energy    TOTEN  =      -348.42399280 eV

  energy without entropy =     -348.37072082  energy(sigma->0) =     -348.40623547


--------------------------------------------------------------------------------------------------------




----------------------------------------- Iteration    1(   5)  ---------------------------------------


     EDDAV:  cpu time    0.66: real time    0.66
       DOS:  cpu time    0.00: real time    0.00
    CHARGE:  cpu time    0.02: real time    0.02
    MIXING:  cpu time    0.00: real time    0.00
    --------------------------------------------
      LOOP:  cpu time    0.68: real time    0.77

 eigenvalue-minimisations  :  1768
 total energy-change (2. order) :-0.2119238E+01  (-0.2089995E+01)
 number of electron     234.9999918 magnetization      -0.0361555
 augmentation part       66.3343671 magnetization       0.1373612

 Broyden mixing:
  rms(total) = 0.67759E+01    rms(broyden)= 0.67677E+01
  rms(prec ) = 0.71434E+01
  weight for this iteration     100.00

 Free energy of the ion-electron system (eV)
  ---------------------------------------------------
  alpha Z        PSCENC =       638.80268190
  Ewald energy   TEWEN  =     53873.73811462
  -1/2 Hartree   DENC   =    -69699.58424655
  -exchange  EXHF       =         0.00000000
  -V(xc)+E(xc)   XCENC  =       564.46502544
  PAW double counting   =     11200.09724383   -11040.26764092
  entropy T*S    EENTRO =        -0.05257221
  eigenvalues    EBANDS =     -1709.32617135
  atomic energy  EATOM  =     15821.58433428
  ---------------------------------------------------
  free energy    TOTEN  =      -350.54323095 eV

  energy without entropy =     -350.49065874  energy(sigma->0) =     -350.52570688


--------------------------------------------------------------------------------------------------------




----------------------------------------- Iteration    1(   6)  ---------------------------------------


    POTLOK:  cpu time    0.04: real time    0.04
    SETDIJ:  cpu time    0.01: real time    0.01
     EDDAV:  cpu time    0.75: real time    0.75
       DOS:  cpu time    0.00: real time    0.00
    CHARGE:  cpu time    0.02: real time    0.02
    MIXING:  cpu time    0.00: real time    0.00
    --------------------------------------------
      LOOP:  cpu time    0.81: real time    0.91

 eigenvalue-minimisations  :  2048
 total energy-change (2. order) :-0.5254633E+02  (-0.1713799E+03)
 number of electron     234.9999372 magnetization      -0.0457676
 augmentation part       83.0014411 magnetization       0.0524579

 Broyden mixing:
  rms(total) = 0.11614E+02    rms(broyden)= 0.11610E+02
  rms(prec ) = 0.17261E+02
  weight for this iteration     100.00

 eigenvalues of (default mixing * dielectric matrix)
  average eigenvalue GAMMA=   0.3331
  0.3331

 Free energy of the ion-electron system (eV)
  ---------------------------------------------------
  alpha Z        PSCENC =       638.80268190
  Ewald energy   TEWEN  =     53873.73811462
  -1/2 Hartree   DENC   =    -69690.42788213
  -exchange  EXHF       =         0.00000000
  -V(xc)+E(xc)   XCENC  =       592.13845137
  PAW double counting   =     12209.57789006   -12041.95936360
  entropy T*S    EENTRO =         0.01600270
  eigenvalues    EBANDS =     -1806.55978870
  atomic energy  EATOM  =     15821.58433428
  ---------------------------------------------------
  free energy    TOTEN  =      -403.08955949 eV

  energy without entropy =     -403.10556219  energy(sigma->0) =     -403.09489372


--------------------------------------------------------------------------------------------------------




----------------------------------------- Iteration    1(   7)  ---------------------------------------


    POTLOK:  cpu time    0.04: real time    0.04
    SETDIJ:  cpu time    0.01: real time    0.01
     EDDAV:  cpu time    0.80: real time    0.80
       DOS:  cpu time    0.00: real time    0.00
    CHARGE:  cpu time    0.02: real time    0.02
    MIXING:  cpu time    0.00: real time    0.00
    --------------------------------------------
      LOOP:  cpu time    0.87: real time    0.95

 eigenvalue-minimisations  :  2224
 total energy-change (2. order) :-0.5391454E+03  (-0.7042782E+03)
 number of electron     234.9999507 magnetization      -0.0413777
 augmentation part       74.2166974 magnetization      -0.3126938

 Broyden mixing:
  rms(total) = 0.15545E+02    rms(broyden)= 0.15542E+02
  rms(prec ) = 0.30807E+02
  weight for this iteration     100.00

 eigenvalues of (default mixing * dielectric matrix)
  average eigenvalue GAMMA=   0.2006
  0.3359  0.0652

 Free energy of the ion-electron system (eV)
  ---------------------------------------------------
  alpha Z        PSCENC =       638.80268190
  Ewald energy   TEWEN  =     53873.73811462
  -1/2 Hartree   DENC   =    -70031.82082409
  -exchange  EXHF       =         0.00000000
  -V(xc)+E(xc)   XCENC  =       579.63853617
  PAW double counting   =     12283.19213971   -12143.99915862
  entropy T*S    EENTRO =        -0.04688963
  eigenvalues    EBANDS =     -1963.32390499
  atomic energy  EATOM  =     15821.58433428
  ---------------------------------------------------
  free energy    TOTEN  =      -942.23497065 eV

  energy without entropy =     -942.18808102  energy(sigma->0) =     -942.21934077


--------------------------------------------------------------------------------------------------------




----------------------------------------- Iteration    1(   8)  ---------------------------------------


    POTLOK:  cpu time    0.04: real time    0.04
    SETDIJ:  cpu time    0.01: real time    0.01
     EDDAV:  cpu time    0.69: real time    0.69
       DOS:  cpu time    0.00: real time    0.00
    CHARGE:  cpu time    0.02: real time    0.02
    MIXING:  cpu time    0.00: real time    0.00
    --------------------------------------------
      LOOP:  cpu time    0.76: real time    0.94

 eigenvalue-minimisations  :  1856
 total energy-change (2. order) : 0.6684186E+03  (-0.4104626E+03)
 number of electron     234.9999637 magnetization      -0.0338163
 augmentation part       71.8664830 magnetization      -0.2496977

 Broyden mixing:
  rms(total) = 0.87864E+01    rms(broyden)= 0.87831E+01
  rms(prec ) = 0.13115E+02
  weight for this iteration     100.00

 eigenvalues of (default mixing * dielectric matrix)
  average eigenvalue GAMMA=   0.1798
  0.3244  0.1075  0.1075

 Free energy of the ion-electron system (eV)
  ---------------------------------------------------
  alpha Z        PSCENC =       638.80268190
  Ewald energy   TEWEN  =     53873.73811462
  -1/2 Hartree   DENC   =    -70114.42284324
  -exchange  EXHF       =         0.00000000
  -V(xc)+E(xc)   XCENC  =       569.92043397
  PAW double counting   =     12307.22439832   -12187.06915302
  entropy T*S    EENTRO =        -0.02821017
  eigenvalues    EBANDS =     -1183.56614687
  atomic energy  EATOM  =     15821.58433428
  ---------------------------------------------------
  free energy    TOTEN  =      -273.81639021 eV

  energy without entropy =     -273.78818004  energy(sigma->0) =     -273.80698682


--------------------------------------------------------------------------------------------------------




----------------------------------------- Iteration    1(   9)  ---------------------------------------


    POTLOK:  cpu time    0.04: real time    0.04
    SETDIJ:  cpu time    0.01: real time    0.01
     EDDAV:  cpu time    0.68: real time    0.68
       DOS:  cpu time    0.00: real time    0.00
    CHARGE:  cpu time    0.02: real time    0.02
    MIXING:  cpu time    0.00: real time    0.00
    --------------------------------------------
      LOOP:  cpu time    0.75: real time    0.98

 eigenvalue-minimisations  :  1840
 total energy-change (2. order) : 0.2428931E+02  (-0.8568153E+02)
 number of electron     234.9999793 magnetization      -0.1028769
 augmentation part       66.6219677 magnetization       0.9060775

 Broyden mixing:
  rms(total) = 0.37924E+01    rms(broyden)= 0.37839E+01
  rms(prec ) = 0.43671E+01
  weight for this iteration     100.00

 eigenvalues of (default mixing * dielectric matrix)
  average eigenvalue GAMMA=   0.2587
  0.6074  0.2360  0.0957  0.0957

 Free energy of the ion-electron system (eV)
  ---------------------------------------------------
  alpha Z        PSCENC =       638.80268190
  Ewald energy   TEWEN  =     53873.73811462
  -1/2 Hartree   DENC   =    -69826.57149675
  -exchange  EXHF       =         0.00000000
  -V(xc)+E(xc)   XCENC  =       568.25465854
  PAW double counting   =     12335.52992177   -12219.40310087
  entropy T*S    EENTRO =        -0.02285072
  eigenvalues    EBANDS =     -1441.43934118
  atomic energy  EATOM  =     15821.58433428
  ---------------------------------------------------
  free energy    TOTEN  =      -249.52707840 eV

  energy without entropy =     -249.50422768  energy(sigma->0) =     -249.51946150


--------------------------------------------------------------------------------------------------------




----------------------------------------- Iteration    1(  10)  ---------------------------------------


    POTLOK:  cpu time    0.04: real time    0.04
    SETDIJ:  cpu time    0.01: real time    0.01
     EDDAV:  cpu time    0.68: real time    0.68
       DOS:  cpu time    0.00: real time    0.00
    CHARGE:  cpu time    0.02: real time    0.02
    MIXING:  cpu time    0.00: real time    0.00
    --------------------------------------------
      LOOP:  cpu time    0.75: real time    0.84

 eigenvalue-minimisations  :  1832
 total energy-change (2. order) :-0.7442260E+01  (-0.1823891E+02)
 number of electron     234.9999835 magnetization      -0.1229064
 augmentation part       66.8570353 magnetization       0.1674945

 Broyden mixing:
  rms(total) = 0.31909E+01    rms(broyden)= 0.31883E+01
  rms(prec ) = 0.35077E+01
  weight for this iteration     100.00

 eigenvalues of (default mixing * dielectric matrix)
  average eigenvalue GAMMA=   0.2770
  0.7030  0.2437  0.2437  0.0971  0.0971

 Free energy of the ion-electron system (eV)
  ---------------------------------------------------
  alpha Z        PSCENC =       638.80268190
  Ewald energy   TEWEN  =     53873.73811462
  -1/2 Hartree   DENC   =    -69839.58162098
  -exchange  EXHF       =         0.00000000
  -V(xc)+E(xc)   XCENC  =       570.73772297
  PAW double counting   =     12475.66877894   -12359.85858761
  entropy T*S    EENTRO =        -0.02173964
  eigenvalues    EBANDS =     -1438.03902283
  atomic energy  EATOM  =     15821.58433428
  ---------------------------------------------------
  free energy    TOTEN  =      -256.96933836 eV

  energy without entropy =     -256.94759871  energy(sigma->0) =     -256.96209181


--------------------------------------------------------------------------------------------------------




----------------------------------------- Iteration    1(  11)  ---------------------------------------


    POTLOK:  cpu time    0.04: real time    0.04
    SETDIJ:  cpu time    0.01: real time    0.01
     EDDAV:  cpu time    0.72: real time    0.72
       DOS:  cpu time    0.00: real time    0.00
    CHARGE:  cpu time    0.02: real time    0.02
    MIXING:  cpu time    0.00: real time    0.00
    --------------------------------------------
      LOOP:  cpu time    0.79: real time    0.87

 eigenvalue-minimisations  :  1968
 total energy-change (2. order) : 0.1158669E+01  (-0.5628178E+01)
 number of electron     234.9999808 magnetization      -0.1671889
 augmentation part       67.0106626 magnetization       1.1419730

 Broyden mixing:
  rms(total) = 0.30098E+01    rms(broyden)= 0.30078E+01
  rms(prec ) = 0.33572E+01
  weight for this iteration     100.00

 eigenvalues of (default mixing * dielectric matrix)
  average eigenvalue GAMMA=   0.2649
  0.6678  0.3037  0.3037  0.0956  0.0956  0.1227

 Free energy of the ion-electron system (eV)
  ---------------------------------------------------
  alpha Z        PSCENC =       638.80268190
  Ewald energy   TEWEN  =     53873.73811462
  -1/2 Hartree   DENC   =    -69814.82096252
  -exchange  EXHF       =         0.00000000
  -V(xc)+E(xc)   XCENC  =       572.56244525
  PAW double counting   =     12570.14688842   -12453.77929139
  entropy T*S    EENTRO =         0.01604322
  eigenvalues    EBANDS =     -1464.06092322
  atomic energy  EATOM  =     15821.58433428
  ---------------------------------------------------
  free energy    TOTEN  =      -255.81066943 eV

  energy without entropy =     -255.82671265  energy(sigma->0) =     -255.81601717


--------------------------------------------------------------------------------------------------------




----------------------------------------- Iteration    1(  12)  ---------------------------------------


    POTLOK:  cpu time    0.04: real time    0.04
    SETDIJ:  cpu time    0.01: real time    0.01
     EDDAV:  cpu time    0.69: real time    0.70
       DOS:  cpu time    0.00: real time    0.00
    CHARGE:  cpu time    0.02: real time    0.02
    MIXING:  cpu time    0.00: real time    0.00
    --------------------------------------------
      LOOP:  cpu time    0.76: real time    0.97

 eigenvalue-minimisations  :  1888
 total energy-change (2. order) : 0.1801713E+01  (-0.4650200E+00)
 number of electron     234.9999826 magnetization      -0.1633071
 augmentation part       67.1612211 magnetization       0.3350957

 Broyden mixing:
  rms(total) = 0.23788E+01    rms(broyden)= 0.23783E+01
  rms(prec ) = 0.25902E+01
  weight for this iteration     100.00

 eigenvalues of (default mixing * dielectric matrix)
  average eigenvalue GAMMA=   0.2865
  0.6247  0.4186  0.4186  0.0963  0.0963  0.1754  0.1754

 Free energy of the ion-electron system (eV)
  ---------------------------------------------------
  alpha Z        PSCENC =       638.80268190
  Ewald energy   TEWEN  =     53873.73811462
  -1/2 Hartree   DENC   =    -69828.52660806
  -exchange  EXHF       =         0.00000000
  -V(xc)+E(xc)   XCENC  =       573.86468923
  PAW double counting   =     12621.29281750   -12504.44847110
  entropy T*S    EENTRO =        -0.01500045
  eigenvalues    EBANDS =     -1450.30151441
  atomic energy  EATOM  =     15821.58433428
  ---------------------------------------------------
  free energy    TOTEN  =      -254.00895649 eV

  energy without entropy =     -253.99395604  energy(sigma->0) =     -254.00395634


--------------------------------------------------------------------------------------------------------




----------------------------------------- Iteration    1(  13)  ---------------------------------------


    POTLOK:  cpu time    0.04: real time    0.04
    SETDIJ:  cpu time    0.01: real time    0.01
     EDDAV:  cpu time    0.76: real time    0.76
       DOS:  cpu time    0.00: real time    0.00
    CHARGE:  cpu time    0.02: real time    0.02
    MIXING:  cpu time    0.00: real time    0.00
    --------------------------------------------
      LOOP:  cpu time    0.83: real time    0.91

 eigenvalue-minimisations  :  2096
 total energy-change (2. order) :-0.6225540E+00  (-0.2809361E+00)
 number of electron     234.9999822 magnetization      -0.1423268
 augmentation part       67.3355978 magnetization       0.0574208

 Broyden mixing:
  rms(total) = 0.21214E+01    rms(broyden)= 0.21209E+01
  rms(prec ) = 0.23261E+01
  weight for this iteration     100.00

 eigenvalues of (default mixing * dielectric matrix)
  average eigenvalue GAMMA=   0.3190
  0.6095  0.5481  0.5481  0.2530  0.2530  0.0965  0.0965  0.1470

 Free energy of the ion-electron system (eV)
  ---------------------------------------------------
  alpha Z        PSCENC =       638.80268190
  Ewald energy   TEWEN  =     53873.73811462
  -1/2 Hartree   DENC   =    -69839.50958785
  -exchange  EXHF       =         0.00000000
  -V(xc)+E(xc)   XCENC  =       575.03304240
  PAW double counting   =     12662.88870226   -12544.82778619
  entropy T*S    EENTRO =        -0.00877960
  eigenvalues    EBANDS =     -1442.33223235
  atomic energy  EATOM  =     15821.58433428
  ---------------------------------------------------
  free energy    TOTEN  =      -254.63151053 eV

  energy without entropy =     -254.62273092  energy(sigma->0) =     -254.62858399


--------------------------------------------------------------------------------------------------------




----------------------------------------- Iteration    1(  14)  ---------------------------------------


    POTLOK:  cpu time    0.04: real time    0.04
    SETDIJ:  cpu time    0.01: real time    0.01
     EDDAV:  cpu time    0.75: real time    0.75
       DOS:  cpu time    0.00: real time    0.00
    CHARGE:  cpu time    0.02: real time    0.02
    MIXING:  cpu time    0.00: real time    0.00
    --------------------------------------------
      LOOP:  cpu time    0.82: real time    0.92

 eigenvalue-minimisations  :  2024
 total energy-change (2. order) :-0.1155202E-01  (-0.2163500E+00)
 number of electron     234.9999818 magnetization      -0.1084285
 augmentation part       67.5621256 magnetization       0.1400539

 Broyden mixing:
  rms(total) = 0.18832E+01    rms(broyden)= 0.18829E+01
  rms(prec ) = 0.20866E+01
  weight for this iteration     100.00

 eigenvalues of (default mixing * dielectric matrix)
  average eigenvalue GAMMA=   0.3800
  0.8211  0.8211  0.5728  0.3188  0.3188  0.2239  0.0965  0.0965  0.1504

 Free energy of the ion-electron system (eV)
  ---------------------------------------------------
  alpha Z        PSCENC =       638.80268190
  Ewald energy   TEWEN  =     53873.73811462
  -1/2 Hartree   DENC   =    -69836.52529156
  -exchange  EXHF       =         0.00000000
  -V(xc)+E(xc)   XCENC  =       576.38572474
  PAW double counting   =     12703.73289954   -12584.76248722
  entropy T*S    EENTRO =        -0.00465284
  eigenvalues    EBANDS =     -1447.59438601
  atomic energy  EATOM  =     15821.58433428
  ---------------------------------------------------
  free energy    TOTEN  =      -254.64306255 eV

  energy without entropy =     -254.63840971  energy(sigma->0) =     -254.64151160


--------------------------------------------------------------------------------------------------------




----------------------------------------- Iteration    1(  15)  ---------------------------------------


    POTLOK:  cpu time    0.04: real time    0.04
    SETDIJ:  cpu time    0.01: real time    0.01
     EDDAV:  cpu time    0.77: real time    0.77
       DOS:  cpu time    0.00: real time    0.00
    CHARGE:  cpu time    0.02: real time    0.02
    MIXING:  cpu time    0.00: real time    0.00
    --------------------------------------------
      LOOP:  cpu time    0.83: real time    1.03

 eigenvalue-minimisations  :  2120
 total energy-change (2. order) : 0.5405499E+00  (-0.4373398E+00)
 number of electron     234.9999797 magnetization      -0.1466535
 augmentation part       68.0168960 magnetization       0.7190146

 Broyden mixing:
  rms(total) = 0.14973E+01    rms(broyden)= 0.14965E+01
  rms(prec ) = 0.17467E+01
  weight for this iteration     100.00

 eigenvalues of (default mixing * dielectric matrix)
  average eigenvalue GAMMA=   0.4142
  1.0022  1.0022  0.5371  0.3957  0.3957  0.0965  0.0965  0.2339  0.2339  0.1486

 Free energy of the ion-electron system (eV)
  ---------------------------------------------------
  alpha Z        PSCENC =       638.80268190
  Ewald energy   TEWEN  =     53873.73811462
  -1/2 Hartree   DENC   =    -69855.81408684
  -exchange  EXHF       =         0.00000000
  -V(xc)+E(xc)   XCENC  =       579.82954713
  PAW double counting   =     12801.17877097   -12679.85047825
  entropy T*S    EENTRO =        -0.02311527
  eigenvalues    EBANDS =     -1433.54828122
  atomic energy  EATOM  =     15821.58433428
  ---------------------------------------------------
  free energy    TOTEN  =      -254.10251268 eV

  energy without entropy =     -254.07939741  energy(sigma->0) =     -254.09480759


--------------------------------------------------------------------------------------------------------




----------------------------------------- Iteration    1(  16)  ---------------------------------------


    POTLOK:  cpu time    0.04: real time    0.04
    SETDIJ:  cpu time    0.01: real time    0.01
     EDDAV:  cpu time    0.77: real time    0.77
       DOS:  cpu time    0.00: real time    0.00
    CHARGE:  cpu time    0.02: real time    0.02
    MIXING:  cpu time    0.00: real time    0.00
    --------------------------------------------
      LOOP:  cpu time    0.83: real time    0.92

 eigenvalue-minimisations  :  2120
 total energy-change (2. order) : 0.7951464E+00  (-0.2358893E+00)
 number of electron     234.9999779 magnetization      -0.2187625
 augmentation part       68.5323991 magnetization       0.3610279

 Broyden mixing:
  rms(total) = 0.10932E+01    rms(broyden)= 0.10927E+01
  rms(prec ) = 0.14038E+01
  weight for this iteration     100.00

 eigenvalues of (default mixing * dielectric matrix)
  average eigenvalue GAMMA=   0.4769
  1.2338  1.2338  0.5928  0.5928  0.4057  0.3077  0.3077  0.0965  0.0965  0.1494
  0.2289

 Free energy of the ion-electron system (eV)
  ---------------------------------------------------
  alpha Z        PSCENC =       638.80268190
  Ewald energy   TEWEN  =     53873.73811462
  -1/2 Hartree   DENC   =    -69849.60280548
  -exchange  EXHF       =         0.00000000
  -V(xc)+E(xc)   XCENC  =       583.23473291
  PAW double counting   =     12899.03444140   -12775.79638921
  entropy T*S    EENTRO =         0.00158868
  eigenvalues    EBANDS =     -1444.30406545
  atomic energy  EATOM  =     15821.58433428
  ---------------------------------------------------
  free energy    TOTEN  =      -253.30736633 eV

  energy without entropy =     -253.30895501  energy(sigma->0) =     -253.30789589


--------------------------------------------------------------------------------------------------------




----------------------------------------- Iteration    1(  17)  ---------------------------------------


    POTLOK:  cpu time    0.04: real time    0.04
    SETDIJ:  cpu time    0.01: real time    0.01
     EDDAV:  cpu time    0.78: real time    0.78
       DOS:  cpu time    0.00: real time    0.00
    CHARGE:  cpu time    0.02: real time    0.02
    MIXING:  cpu time    0.00: real time    0.00
    --------------------------------------------
      LOOP:  cpu time    0.84: real time    0.93

 eigenvalue-minimisations  :  2152
 total energy-change (2. order) : 0.9791817E+00  (-0.4620294E+00)
 number of electron     234.9999749 magnetization      -0.2368728
 augmentation part       69.2538821 magnetization       0.4739338

 Broyden mixing:
  rms(total) = 0.86309E+00    rms(broyden)= 0.86014E+00
  rms(prec ) = 0.10379E+01
  weight for this iteration     100.00

 eigenvalues of (default mixing * dielectric matrix)
  average eigenvalue GAMMA=   0.4604
  1.3020  1.3020  0.5979  0.5979  0.3836  0.3089  0.3089  0.0965  0.0965  0.2204
  0.1488  0.1616

 Free energy of the ion-electron system (eV)
  ---------------------------------------------------
  alpha Z        PSCENC =       638.80268190
  Ewald energy   TEWEN  =     53873.73811462
  -1/2 Hartree   DENC   =    -69857.36567029
  -exchange  EXHF       =         0.00000000
  -V(xc)+E(xc)   XCENC  =       588.24249223
  PAW double counting   =     13037.88653943   -12912.50079337
  entropy T*S    EENTRO =         0.05258364
  eigenvalues    EBANDS =     -1442.76846707
  atomic energy  EATOM  =     15821.58433428
  ---------------------------------------------------
  free energy    TOTEN  =      -252.32818463 eV

  energy without entropy =     -252.38076827  energy(sigma->0) =     -252.34571251


--------------------------------------------------------------------------------------------------------




----------------------------------------- Iteration    1(  18)  ---------------------------------------


    POTLOK:  cpu time    0.04: real time    0.04
    SETDIJ:  cpu time    0.01: real time    0.01
     EDDAV:  cpu time    0.66: real time    0.66
       DOS:  cpu time    0.00: real time    0.00
    CHARGE:  cpu time    0.02: real time    0.02
    MIXING:  cpu time    0.00: real time    0.00
    --------------------------------------------
      LOOP:  cpu time    0.73: real time    0.82

 eigenvalue-minimisations  :  1784
 total energy-change (2. order) : 0.1717069E+00  (-0.7842309E-01)
 number of electron     234.9999751 magnetization      -0.2798229
 augmentation part       69.3412220 magnetization       0.2807918

 Broyden mixing:
  rms(total) = 0.64530E+00    rms(broyden)= 0.64513E+00
  rms(prec ) = 0.87190E+00
  weight for this iteration     100.00

 eigenvalues of (default mixing * dielectric matrix)
  average eigenvalue GAMMA=   0.5095
  1.4268  1.4268  0.6877  0.6877  0.4314  0.4314  0.3766  0.2938  0.2938  0.0965
  0.0965  0.1494  0.2250

 Free energy of the ion-electron system (eV)
  ---------------------------------------------------
  alpha Z        PSCENC =       638.80268190
  Ewald energy   TEWEN  =     53873.73811462
  -1/2 Hartree   DENC   =    -69864.46924319
  -exchange  EXHF       =         0.00000000
  -V(xc)+E(xc)   XCENC  =       589.68010891
  PAW double counting   =     13072.51607653   -12946.87332130
  entropy T*S    EENTRO =         0.05817134
  eigenvalues    EBANDS =     -1437.19340080
  atomic energy  EATOM  =     15821.58433428
  ---------------------------------------------------
  free energy    TOTEN  =      -252.15647770 eV

  energy without entropy =     -252.21464905  energy(sigma->0) =     -252.17586815


--------------------------------------------------------------------------------------------------------




----------------------------------------- Iteration    1(  19)  ---------------------------------------


    POTLOK:  cpu time    0.04: real time    0.04
    SETDIJ:  cpu time    0.01: real time    0.01
     EDDAV:  cpu time    0.75: real time    0.75
       DOS:  cpu time    0.00: real time    0.00
    CHARGE:  cpu time    0.02: real time    0.02
    MIXING:  cpu time    0.00: real time    0.00
    --------------------------------------------
      LOOP:  cpu time    0.82: real time    0.90

 eigenvalue-minimisations  :  2040
 total energy-change (2. order) :-0.7941300E-01  (-0.1884610E+00)
 number of electron     234.9999744 magnetization      -0.3152683
 augmentation part       69.5120149 magnetization       0.6870645

 Broyden mixing:
  rms(total) = 0.83985E+00    rms(broyden)= 0.83911E+00
  rms(prec ) = 0.91717E+00
  weight for this iteration     100.00

 eigenvalues of (default mixing * dielectric matrix)
  average eigenvalue GAMMA=   0.5072
  1.4485  1.4485  0.7412  0.7412  0.4912  0.4912  0.3578  0.3233  0.3233  0.0965
  0.0965  0.2300  0.1494  0.1621

 Free energy of the ion-electron system (eV)
  ---------------------------------------------------
  alpha Z        PSCENC =       638.80268190
  Ewald energy   TEWEN  =     53873.73811462
  -1/2 Hartree   DENC   =    -69862.58032155
  -exchange  EXHF       =         0.00000000
  -V(xc)+E(xc)   XCENC  =       591.10289431
  PAW double counting   =     13121.07902157   -12996.05707170
  entropy T*S    EENTRO =         0.01008371
  eigenvalues    EBANDS =     -1439.91562786
  atomic energy  EATOM  =     15821.58433428
  ---------------------------------------------------
  free energy    TOTEN  =      -252.23589071 eV

  energy without entropy =     -252.24597442  energy(sigma->0) =     -252.23925194


--------------------------------------------------------------------------------------------------------




----------------------------------------- Iteration    1(  20)  ---------------------------------------


    POTLOK:  cpu time    0.04: real time    0.04
    SETDIJ:  cpu time    0.01: real time    0.01
     EDDAV:  cpu time    0.71: real time    0.71
       DOS:  cpu time    0.00: real time    0.00
    CHARGE:  cpu time    0.02: real time    0.02
    MIXING:  cpu time    0.00: real time    0.00
    --------------------------------------------
      LOOP:  cpu time    0.78: real time    0.98

 eigenvalue-minimisations  :  1936
 total energy-change (2. order) : 0.2664909E+00  (-0.2652213E-01)
 number of electron     234.9999743 magnetization      -0.3638508
 augmentation part       69.5472780 magnetization       0.6681874

 Broyden mixing:
  rms(total) = 0.68550E+00    rms(broyden)= 0.68536E+00
  rms(prec ) = 0.74100E+00
  weight for this iteration     100.00

 eigenvalues of (default mixing * dielectric matrix)
  average eigenvalue GAMMA=   0.5387
  1.4807  1.4807  0.8747  0.8747  0.5857  0.5857  0.3863  0.3863  0.0965  0.0965
  0.3380  0.1494  0.2627  0.2627  0.2203

 Free energy of the ion-electron system (eV)
  ---------------------------------------------------
  alpha Z        PSCENC =       638.80268190
  Ewald energy   TEWEN  =     53873.73811462
  -1/2 Hartree   DENC   =    -69869.89857081
  -exchange  EXHF       =         0.00000000
  -V(xc)+E(xc)   XCENC  =       591.56949726
  PAW double counting   =     13141.50347655   -13017.07109758
  entropy T*S    EENTRO =        -0.02818713
  eigenvalues    EBANDS =     -1432.16964892
  atomic energy  EATOM  =     15821.58433428
  ---------------------------------------------------
  free energy    TOTEN  =      -251.96939983 eV

  energy without entropy =     -251.94121269  energy(sigma->0) =     -251.96000412


--------------------------------------------------------------------------------------------------------




----------------------------------------- Iteration    1(  21)  ---------------------------------------


    POTLOK:  cpu time    0.04: real time    0.04
    SETDIJ:  cpu time    0.01: real time    0.01
     EDDAV:  cpu time    1.10: real time    1.10
       DOS:  cpu time    0.00: real time    0.00
    CHARGE:  cpu time    0.04: real time    0.04
    MIXING:  cpu time    0.01: real time    0.01
    --------------------------------------------
      LOOP:  cpu time    1.19: real time    1.28

 eigenvalue-minimisations  :  1960
 total energy-change (2. order) : 0.3398806E-01  (-0.1794535E-01)
 number of electron     234.9999746 magnetization      -0.4208744
 augmentation part       69.5004974 magnetization       0.5514020

 Broyden mixing:
  rms(total) = 0.58268E+00    rms(broyden)= 0.58260E+00
  rms(prec ) = 0.63159E+00
  weight for this iteration     100.00

 eigenvalues of (default mixing * dielectric matrix)
  average eigenvalue GAMMA=   0.5615
  1.5223  1.5223  1.0068  1.0068  0.6406  0.6406  0.4295  0.4295  0.3870  0.0965
  0.0965  0.3016  0.3016  0.1494  0.2400  0.2126

 Free energy of the ion-electron system (eV)
  ---------------------------------------------------
  alpha Z        PSCENC =       638.80268190
  Ewald energy   TEWEN  =     53873.73811462
  -1/2 Hartree   DENC   =    -69873.81325138
  -exchange  EXHF       =         0.00000000
  -V(xc)+E(xc)   XCENC  =       591.49308706
  PAW double counting   =     13148.76688964   -13025.10695950
  entropy T*S    EENTRO =        -0.01688577
  eigenvalues    EBANDS =     -1427.38342262
  atomic energy  EATOM  =     15821.58433428
  ---------------------------------------------------
  free energy    TOTEN  =      -251.93541177 eV

  energy without entropy =     -251.91852600  energy(sigma->0) =     -251.92978318


--------------------------------------------------------------------------------------------------------




----------------------------------------- Iteration    1(  22)  ---------------------------------------


    POTLOK:  cpu time    0.06: real time    0.06
    SETDIJ:  cpu time    0.01: real time    0.01
     EDDAV:  cpu time    1.78: real time    1.78
       DOS:  cpu time    0.00: real time    0.00
    CHARGE:  cpu time    0.03: real time    0.03
    MIXING:  cpu time    0.00: real time    0.00
    --------------------------------------------
      LOOP:  cpu time    1.88: real time    1.97

 eigenvalue-minimisations  :  1816
 total energy-change (2. order) : 0.4293408E-01  (-0.3552556E-01)
 number of electron     234.9999743 magnetization      -0.4610294
 augmentation part       69.5079016 magnetization       0.5047917

 Broyden mixing:
  rms(total) = 0.53085E+00    rms(broyden)= 0.53044E+00
  rms(prec ) = 0.56435E+00
  weight for this iteration     100.00

 eigenvalues of (default mixing * dielectric matrix)
  average eigenvalue GAMMA=   0.5603
  1.5390  1.5390  1.1180  1.1180  0.6622  0.6622  0.4508  0.4508  0.4035  0.0965
  0.0965  0.3112  0.3014  0.1494  0.2394  0.2026  0.1849

 Free energy of the ion-electron system (eV)
  ---------------------------------------------------
  alpha Z        PSCENC =       638.80268190
  Ewald energy   TEWEN  =     53873.73811462
  -1/2 Hartree   DENC   =    -69876.19968250
  -exchange  EXHF       =         0.00000000
  -V(xc)+E(xc)   XCENC  =       591.49724096
  PAW double counting   =     13157.59584831   -13034.62696000
  entropy T*S    EENTRO =        -0.05920833
  eigenvalues    EBANDS =     -1424.22484692
  atomic energy  EATOM  =     15821.58433428
  ---------------------------------------------------
  free energy    TOTEN  =      -251.89247769 eV

  energy without entropy =     -251.83326935  energy(sigma->0) =     -251.87274157


--------------------------------------------------------------------------------------------------------




----------------------------------------- Iteration    1(  23)  ---------------------------------------


    POTLOK:  cpu time    0.05: real time    0.05
    SETDIJ:  cpu time    0.01: real time    0.01
     EDDAV:  cpu time    1.03: real time    1.03
       DOS:  cpu time    0.00: real time    0.00
    CHARGE:  cpu time    0.02: real time    0.02
    MIXING:  cpu time    0.00: real time    0.00
    --------------------------------------------
      LOOP:  cpu time    1.11: real time    1.20

 eigenvalue-minimisations  :  1800
 total energy-change (2. order) : 0.9774779E-01  (-0.1760104E-01)
 number of electron     234.9999748 magnetization      -0.5884797
 augmentation part       69.4592653 magnetization       0.4636363

 Broyden mixing:
  rms(total) = 0.44411E+00    rms(broyden)= 0.44396E+00
  rms(prec ) = 0.47042E+00
  weight for this iteration     100.00

 eigenvalues of (default mixing * dielectric matrix)
  average eigenvalue GAMMA=   0.5976
  1.5698  1.5698  1.3765  1.3765  0.7109  0.7109  0.5167  0.5167  0.4194  0.4194
  0.0965  0.0965  0.3282  0.2614  0.2614  0.2168  0.1494  0.1601

 Free energy of the ion-electron system (eV)
  ---------------------------------------------------
  alpha Z        PSCENC =       638.80268190
  Ewald energy   TEWEN  =     53873.73811462
  -1/2 Hartree   DENC   =    -69881.64660268
  -exchange  EXHF       =         0.00000000
  -V(xc)+E(xc)   XCENC  =       591.48930196
  PAW double counting   =     13162.94416114   -13040.45440173
  entropy T*S    EENTRO =        -0.04226810
  eigenvalues    EBANDS =     -1418.21005130
  atomic energy  EATOM  =     15821.58433428
  ---------------------------------------------------
  free energy    TOTEN  =      -251.79472990 eV

  energy without entropy =     -251.75246180  energy(sigma->0) =     -251.78064053


--------------------------------------------------------------------------------------------------------




----------------------------------------- Iteration    1(  24)  ---------------------------------------


    POTLOK:  cpu time    0.04: real time    0.04
    SETDIJ:  cpu time    0.01: real time    0.01
     EDDAV:  cpu time    1.80: real time    1.86
       DOS:  cpu time    0.00: real time    0.00
    CHARGE:  cpu time    0.02: real time    0.02
    MIXING:  cpu time    0.00: real time    0.00
    --------------------------------------------
      LOOP:  cpu time    1.87: real time    2.01

 eigenvalue-minimisations  :  1968
 total energy-change (2. order) : 0.5874404E-01  (-0.1813233E-01)
 number of electron     234.9999747 magnetization      -0.6812112
 augmentation part       69.4638634 magnetization       0.3047326

 Broyden mixing:
  rms(total) = 0.31070E+00    rms(broyden)= 0.31054E+00
  rms(prec ) = 0.32783E+00
  weight for this iteration     100.00

 eigenvalues of (default mixing * dielectric matrix)
  average eigenvalue GAMMA=   0.6277
  1.6837  1.6837  1.4918  1.4918  0.7545  0.7545  0.6209  0.6209  0.4316  0.4316
  0.0965  0.0965  0.3776  0.3373  0.1494  0.2621  0.2621  0.2159  0.1646

 Free energy of the ion-electron system (eV)
  ---------------------------------------------------
  alpha Z        PSCENC =       638.80268190
  Ewald energy   TEWEN  =     53873.73811462
  -1/2 Hartree   DENC   =    -69890.32552790
  -exchange  EXHF       =         0.00000000
  -V(xc)+E(xc)   XCENC  =       591.54034333
  PAW double counting   =     13182.15143145   -13060.61209814
  entropy T*S    EENTRO =        -0.03976221
  eigenvalues    EBANDS =     -1408.57550319
  atomic energy  EATOM  =     15821.58433428
  ---------------------------------------------------
  free energy    TOTEN  =      -251.73598586 eV

  energy without entropy =     -251.69622365  energy(sigma->0) =     -251.72273179


--------------------------------------------------------------------------------------------------------




----------------------------------------- Iteration    1(  25)  ---------------------------------------


    POTLOK:  cpu time    0.04: real time    0.04
    SETDIJ:  cpu time    0.01: real time    0.01
     EDDAV:  cpu time    1.77: real time    1.78
       DOS:  cpu time    0.00: real time    0.00
    CHARGE:  cpu time    0.02: real time    0.02
    MIXING:  cpu time    0.00: real time    0.00
    --------------------------------------------
      LOOP:  cpu time    1.84: real time    1.94

 eigenvalue-minimisations  :  2016
 total energy-change (2. order) : 0.8480873E-02  (-0.1124303E-01)
 number of electron     234.9999749 magnetization      -0.8058935
 augmentation part       69.4259753 magnetization       0.1775494

 Broyden mixing:
  rms(total) = 0.19793E+00    rms(broyden)= 0.19778E+00
  rms(prec ) = 0.20568E+00
  weight for this iteration     100.00

 eigenvalues of (default mixing * dielectric matrix)
  average eigenvalue GAMMA=   0.6854
  2.1812  2.1812  1.4434  1.4434  0.7852  0.7852  0.7159  0.7159  0.5777  0.4542
  0.4542  0.3949  0.0965  0.0965  0.3305  0.1494  0.2619  0.2619  0.2161  0.1632

 Free energy of the ion-electron system (eV)
  ---------------------------------------------------
  alpha Z        PSCENC =       638.80268190
  Ewald energy   TEWEN  =     53873.73811462
  -1/2 Hartree   DENC   =    -69898.41045257
  -exchange  EXHF       =         0.00000000
  -V(xc)+E(xc)   XCENC  =       591.59049096
  PAW double counting   =     13190.39914541   -13069.47415191
  entropy T*S    EENTRO =        -0.04327440
  eigenvalues    EBANDS =     -1399.91439328
  atomic energy  EATOM  =     15821.58433428
  ---------------------------------------------------
  free energy    TOTEN  =      -251.72750499 eV

  energy without entropy =     -251.68423059  energy(sigma->0) =     -251.71308019


--------------------------------------------------------------------------------------------------------




----------------------------------------- Iteration    1(  26)  ---------------------------------------


    POTLOK:  cpu time    0.04: real time    0.04
    SETDIJ:  cpu time    0.01: real time    0.01
     EDDAV:  cpu time    1.86: real time    2.15
       DOS:  cpu time    0.00: real time    0.00
    CHARGE:  cpu time    0.02: real time    0.03
    MIXING:  cpu time    0.00: real time    0.00
    --------------------------------------------
      LOOP:  cpu time    1.93: real time    2.42

 eigenvalue-minimisations  :  1880
 total energy-change (2. order) :-0.9165332E-01  (-0.1026889E-01)
 number of electron     234.9999751 magnetization      -0.9008078
 augmentation part       69.3643318 magnetization      -0.0062590

 Broyden mixing:
  rms(total) = 0.11575E+00    rms(broyden)= 0.11535E+00
  rms(prec ) = 0.13472E+00
  weight for this iteration     100.00

 eigenvalues of (default mixing * dielectric matrix)
  average eigenvalue GAMMA=   0.6877
  2.2059  2.2059  1.3936  1.3936  0.7526  0.7526  0.7786  0.7786  0.7648  0.5370
  0.4545  0.4545  0.3937  0.0965  0.0965  0.3294  0.1494  0.2620  0.2620  0.2161
  0.1632

 Free energy of the ion-electron system (eV)
  ---------------------------------------------------
  alpha Z        PSCENC =       638.80268190
  Ewald energy   TEWEN  =     53873.73811462
  -1/2 Hartree   DENC   =    -69906.49930260
  -exchange  EXHF       =         0.00000000
  -V(xc)+E(xc)   XCENC  =       591.49080146
  PAW double counting   =     13197.27880330   -13076.78841113
  entropy T*S    EENTRO =        -0.04995407
  eigenvalues    EBANDS =     -1391.37622608
  atomic energy  EATOM  =     15821.58433428
  ---------------------------------------------------
  free energy    TOTEN  =      -251.81915831 eV

  energy without entropy =     -251.76920424  energy(sigma->0) =     -251.80250695


--------------------------------------------------------------------------------------------------------




----------------------------------------- Iteration    1(  27)  ---------------------------------------


    POTLOK:  cpu time    0.04: real time    0.04
    SETDIJ:  cpu time    0.01: real time    0.01
     EDDAV:  cpu time    0.65: real time    0.66
       DOS:  cpu time    0.00: real time    0.00
    CHARGE:  cpu time    0.02: real time    0.02
    MIXING:  cpu time    0.00: real time    0.00
    --------------------------------------------
      LOOP:  cpu time    0.72: real time    0.92

 eigenvalue-minimisations  :  1752
 total energy-change (2. order) :-0.1790387E+00  (-0.4172474E-02)
 number of electron     234.9999751 magnetization      -1.0560532
 augmentation part       69.3739545 magnetization      -0.1238309

 Broyden mixing:
  rms(total) = 0.95326E-01    rms(broyden)= 0.95255E-01
  rms(prec ) = 0.10507E+00
  weight for this iteration     100.00

 eigenvalues of (default mixing * dielectric matrix)
  average eigenvalue GAMMA=   0.7092
  2.0783  2.0783  1.4440  1.4440  1.4426  0.7509  0.7509  0.8487  0.7453  0.7453
  0.4491  0.4491  0.0965  0.0965  0.4010  0.4010  0.3288  0.1494  0.2619  0.2619
  0.2161  0.1632

 Free energy of the ion-electron system (eV)
  ---------------------------------------------------
  alpha Z        PSCENC =       638.80268190
  Ewald energy   TEWEN  =     53873.73811462
  -1/2 Hartree   DENC   =    -69910.31941968
  -exchange  EXHF       =         0.00000000
  -V(xc)+E(xc)   XCENC  =       591.39518060
  PAW double counting   =     13206.26132710   -13085.97165476
  entropy T*S    EENTRO =        -0.04749734
  eigenvalues    EBANDS =     -1387.44126368
  atomic energy  EATOM  =     15821.58433428
  ---------------------------------------------------
  free energy    TOTEN  =      -251.99819696 eV

  energy without entropy =     -251.95069962  energy(sigma->0) =     -251.98236452


--------------------------------------------------------------------------------------------------------




----------------------------------------- Iteration    1(  28)  ---------------------------------------


    POTLOK:  cpu time    0.08: real time    0.08
    SETDIJ:  cpu time    0.02: real time    0.02
     EDDAV:  cpu time    1.11: real time    1.11
       DOS:  cpu time    0.00: real time    0.00
    CHARGE:  cpu time    0.02: real time    0.02
    MIXING:  cpu time    0.00: real time    0.00
    --------------------------------------------
      LOOP:  cpu time    1.23: real time    1.43

 eigenvalue-minimisations  :  1808
 total energy-change (2. order) :-0.1985391E+00  (-0.6746949E-02)
 number of electron     234.9999749 magnetization      -1.1502159
 augmentation part       69.3898975 magnetization      -0.1716469

 Broyden mixing:
  rms(total) = 0.11258E+00    rms(broyden)= 0.11242E+00
  rms(prec ) = 0.11956E+00
  weight for this iteration     100.00

 eigenvalues of (default mixing * dielectric matrix)
  average eigenvalue GAMMA=   0.7067
  2.0429  2.0429  1.5112  1.5112  1.2159  1.2159  0.7461  0.7461  0.7089  0.7089
  0.4558  0.4558  0.4632  0.4632  0.0965  0.0965  0.3908  0.3297  0.1494  0.2619
  0.2619  0.2161  0.1632

 Free energy of the ion-electron system (eV)
  ---------------------------------------------------
  alpha Z        PSCENC =       638.80268190
  Ewald energy   TEWEN  =     53873.73811462
  -1/2 Hartree   DENC   =    -69915.10520019
  -exchange  EXHF       =         0.00000000
  -V(xc)+E(xc)   XCENC  =       591.36114266
  PAW double counting   =     13215.98377489   -13095.92726132
  entropy T*S    EENTRO =        -0.03776972
  eigenvalues    EBANDS =     -1382.59655319
  atomic energy  EATOM  =     15821.58433428
  ---------------------------------------------------
  free energy    TOTEN  =      -252.19673605 eV

  energy without entropy =     -252.15896634  energy(sigma->0) =     -252.18414615


--------------------------------------------------------------------------------------------------------




----------------------------------------- Iteration    1(  29)  ---------------------------------------


    POTLOK:  cpu time    0.04: real time    0.04
    SETDIJ:  cpu time    0.01: real time    0.01
     EDDAV:  cpu time    0.79: real time    0.79
       DOS:  cpu time    0.00: real time    0.00
    CHARGE:  cpu time    0.05: real time    0.05
    MIXING:  cpu time    0.01: real time    0.01
    --------------------------------------------
      LOOP:  cpu time    0.89: real time    0.98

 eigenvalue-minimisations  :  1728
 total energy-change (2. order) :-0.3903940E-01  (-0.2402021E-02)
 number of electron     234.9999750 magnetization      -1.2507612
 augmentation part       69.3741563 magnetization      -0.2591689

 Broyden mixing:
  rms(total) = 0.10627E+00    rms(broyden)= 0.10622E+00
  rms(prec ) = 0.11331E+00
  weight for this iteration     100.00

 eigenvalues of (default mixing * dielectric matrix)
  average eigenvalue GAMMA=   0.7484
  2.5146  2.5146  1.5930  1.5930  1.1894  1.1894  0.7456  0.7456  0.6451  0.6451
  0.6542  0.6542  0.4517  0.4517  0.0965  0.0965  0.3993  0.3993  0.3295  0.1494
  0.2619  0.2619  0.2161  0.1632

 Free energy of the ion-electron system (eV)
  ---------------------------------------------------
  alpha Z        PSCENC =       638.80268190
  Ewald energy   TEWEN  =     53873.73811462
  -1/2 Hartree   DENC   =    -69918.31922493
  -exchange  EXHF       =         0.00000000
  -V(xc)+E(xc)   XCENC  =       591.37782271
  PAW double counting   =     13217.02325975   -13097.01647056
  entropy T*S    EENTRO =        -0.03963582
  eigenvalues    EBANDS =     -1379.38665740
  atomic energy  EATOM  =     15821.58433428
  ---------------------------------------------------
  free energy    TOTEN  =      -252.23577545 eV

  energy without entropy =     -252.19613963  energy(sigma->0) =     -252.22256351


--------------------------------------------------------------------------------------------------------




----------------------------------------- Iteration    1(  30)  ---------------------------------------


    POTLOK:  cpu time    0.04: real time    0.07
    SETDIJ:  cpu time    0.00: real time    0.01
     EDDAV:  cpu time    1.11: real time    1.22
       DOS:  cpu time    0.00: real time    0.00
    CHARGE:  cpu time    0.02: real time    0.02
    MIXING:  cpu time    0.00: real time    0.00
    --------------------------------------------
      LOOP:  cpu time    1.18: real time    1.42

 eigenvalue-minimisations  :  1688
 total energy-change (2. order) :-0.6159480E-01  (-0.1654678E-02)
 number of electron     234.9999751 magnetization      -1.3749049
 augmentation part       69.3602432 magnetization      -0.3767932

 Broyden mixing:
  rms(total) = 0.92190E-01    rms(broyden)= 0.92158E-01
  rms(prec ) = 0.99398E-01
  weight for this iteration     100.00

 eigenvalues of (default mixing * dielectric matrix)
  average eigenvalue GAMMA=   0.7791
  2.7272  2.7272  1.6436  1.6436  1.2422  1.2422  0.7494  0.7494  0.7580  0.7580
  0.6851  0.6851  0.5639  0.4518  0.4518  0.0965  0.0965  0.4275  0.3980  0.3294
  0.1494  0.2619  0.2619  0.2161  0.1632

 Free energy of the ion-electron system (eV)
  ---------------------------------------------------
  alpha Z        PSCENC =       638.80268190
  Ewald energy   TEWEN  =     53873.73811462
  -1/2 Hartree   DENC   =    -69920.42557522
  -exchange  EXHF       =         0.00000000
  -V(xc)+E(xc)   XCENC  =       591.32759648
  PAW double counting   =     13216.12705366   -13096.14950636
  entropy T*S    EENTRO =        -0.03973055
  eigenvalues    EBANDS =     -1377.26233907
  atomic energy  EATOM  =     15821.58433428
  ---------------------------------------------------
  free energy    TOTEN  =      -252.29737025 eV

  energy without entropy =     -252.25763970  energy(sigma->0) =     -252.28412673


--------------------------------------------------------------------------------------------------------




----------------------------------------- Iteration    1(  31)  ---------------------------------------


    POTLOK:  cpu time    0.04: real time    0.04
    SETDIJ:  cpu time    0.01: real time    0.01
     EDDAV:  cpu time    0.79: real time    0.79
       DOS:  cpu time    0.00: real time    0.00
    CHARGE:  cpu time    0.02: real time    0.02
    MIXING:  cpu time    0.00: real time    0.00
    --------------------------------------------
      LOOP:  cpu time    0.86: real time    0.94

 eigenvalue-minimisations  :  1568
 total energy-change (2. order) :-0.6049973E-01  (-0.2460711E-02)
 number of electron     234.9999752 magnetization      -1.4613448
 augmentation part       69.3566360 magnetization      -0.4699936

 Broyden mixing:
  rms(total) = 0.62103E-01    rms(broyden)= 0.62005E-01
  rms(prec ) = 0.66625E-01
  weight for this iteration     100.00

 eigenvalues of (default mixing * dielectric matrix)
  average eigenvalue GAMMA=   0.8068
[...]
     32      -5.8123      1.00000
     33      -5.7462      1.00000
     34      -5.6916      1.00000
     35      -5.6856      1.00000
     36      -5.6027      1.00000
     37      -5.5793      1.00000
     38      -5.5125      1.00000
     39      -5.5009      1.00000
     40      -5.4854      1.00000
     41      -5.3684      1.00000
     42      -5.2170      1.00000
     43      -5.1062      1.00000
     44      -5.0910      1.00000
     45      -4.9897      1.00000
     46      -4.9616      1.00000
     47      -4.8031      1.00000
     48      -4.7078      1.00000
     49      -4.6978      1.00000
     50      -4.6237      1.00000
     51      -4.6032      1.00000
     52      -4.5114      1.00000
     53      -4.4858      1.00000
     54      -4.4447      1.00000
     55      -4.4159      1.00000
     56      -4.3982      1.00000
     57      -4.3791      1.00000
     58      -4.3438      1.00000
     59      -4.3429      1.00000
     60      -4.2567      1.00000
     61      -4.1997      1.00000
     62      -4.1448      1.00000
     63      -4.0088      1.00000
     64      -3.9932      1.00000
     65      -3.9788      1.00000
     66      -3.9576      1.00000
     67      -3.9485      1.00000
     68      -3.7427      1.00000
     69      -3.6313      1.00000
     70      -3.5861      1.00000
     71      -3.5146      1.00000
     72      -3.5015      1.00000
     73      -3.4801      1.00000
     74      -3.3805      1.00000
     75      -3.2929      1.00000
     76      -3.2897      1.00000
     77      -3.2858      1.00000
     78      -3.2024      1.00000
     79      -3.1932      1.00000
     80      -3.1876      1.00000
     81      -3.1704      1.00000
     82      -3.0024      1.00000
     83      -2.9575      1.00000
     84      -2.7835      1.00000
     85      -2.7293      1.00000
     86      -2.6949      1.00000
     87      -2.6636      1.00000
     88      -2.5563      1.00000
     89      -2.5544      1.00000
     90      -2.5191      1.00000
     91      -2.4133      1.00000
     92      -2.3224      1.00000
     93      -2.2999      1.00000
     94      -2.1633      1.00000
     95      -1.9258      1.00000
     96      -1.7120      1.00000
     97      -1.6347      1.00000
     98      -1.4976      1.00000
     99      -1.4302      1.00000
    100      -1.2804      1.00000
    101      -1.2160      1.00000
    102      -1.1950      1.00000
    103      -1.1159      1.00000
    104      -1.0135      1.00000
    105      -0.9874      1.00000
    106      -0.9424      1.00000
    107      -0.8692      1.00000
    108      -0.8065      1.00000
    109      -0.6770      1.00000
    110      -0.6459      1.00000
    111      -0.6129      1.00000
    112      -0.5698      1.00000
    113      -0.4296      1.00000
    114      -0.1906      1.00011
    115      -0.1190      1.00068
    116      -0.0937      1.00122
    117      -0.0884      1.00137
    118       0.0695      1.01974
    119       0.1258      1.03208
    120       0.5424      0.04302
    121       1.3228     -0.00000
    122       1.8314     -0.00000
    123       1.9544     -0.00000
    124       2.1457     -0.00000
    125       2.1684     -0.00000
    126       2.1747     -0.00000
    127       2.2482     -0.00000
    128       2.3744     -0.00000
    129       2.4930     -0.00000
    130       2.7535     -0.00000
    131       2.8947     -0.00000
    132       2.9203     -0.00000
    133       2.9626     -0.00000
    134       3.0786     -0.00000
    135       3.0796     -0.00000
    136       3.0949     -0.00000
    137       3.2209     -0.00000
    138       3.2993     -0.00000
    139       3.3586     -0.00000
    140       3.3833     -0.00000
    141       3.4333     -0.00000
    142       3.5220     -0.00000
    143       3.6334     -0.00000
    144       3.6425     -0.00000


--------------------------------------------------------------------------------------------------------


 soft charge-density along one line, spin component           1
         0         1         2         3         4         5         6         7         8         9
 total charge-density along one line
 
 soft charge-density along one line, spin component           2
         0         1         2         3         4         5         6         7         8         9
 total charge-density along one line
 
 pseudopotential strength for first ion, spin component:           1
 24.253   0.016   0.005  -0.066   0.002   0.001  -0.012   0.000
  0.016   0.024   0.000  -0.001   0.000   0.000  -0.000   0.000
  0.005   0.000  -6.024   0.002  -0.000   0.032   0.000  -0.000
 -0.066  -0.001   0.002  -6.165  -0.000   0.000   0.014  -0.000
  0.002   0.000  -0.000  -0.000  -6.101  -0.000  -0.000   0.022
  0.001   0.000   0.032   0.000  -0.000   0.204   0.000   0.000
 -0.012  -0.000   0.000   0.014  -0.000   0.000   0.202  -0.000
  0.000   0.000  -0.000  -0.000   0.022   0.000  -0.000   0.203
 pseudopotential strength for first ion, spin component:           2
 24.280   0.017   0.005  -0.075   0.002   0.001  -0.013   0.000
  0.017   0.024   0.000  -0.001   0.000   0.000  -0.000   0.000
  0.005   0.000  -5.923   0.001  -0.000   0.048   0.000  -0.000
 -0.075  -0.001   0.001  -6.335   0.001   0.000  -0.014   0.000
  0.002   0.000  -0.000   0.001  -6.215  -0.000   0.000   0.004
  0.001   0.000   0.048   0.000  -0.000   0.206   0.000  -0.000
 -0.013  -0.000   0.000  -0.014   0.000   0.000   0.197   0.000
  0.000   0.000  -0.000   0.000   0.004  -0.000   0.000   0.200
 total augmentation occupancy for first ion, spin component:           1
  1.836   0.525   0.002  -0.021   0.001   0.002  -0.036   0.001
  0.525   0.462  -0.008   0.140  -0.004   0.010  -0.111   0.001
  0.002  -0.008   1.834  -0.001  -0.000  -0.557   0.009  -0.000
 -0.021   0.140  -0.001   1.624  -0.000   0.009  -1.018  -0.001
  0.001  -0.004  -0.000  -0.000   1.705  -0.000  -0.001  -0.882
  0.002   0.010  -0.557   0.009  -0.000   0.321  -0.002  -0.000
 -0.036  -0.111   0.009  -1.018  -0.001  -0.002   0.758   0.001
  0.001   0.001  -0.000  -0.001  -0.882  -0.000   0.001   0.589
 total augmentation occupancy for first ion, spin component:           2
  0.005  -0.026   0.001  -0.010   0.000  -0.000   0.000  -0.000
 -0.026   0.104  -0.001   0.032  -0.001   0.002  -0.015   0.001
  0.001  -0.001   0.114  -0.001  -0.000   0.057   0.001  -0.000
 -0.010   0.032  -0.001  -0.139   0.001   0.001  -0.014   0.000
  0.000  -0.001  -0.000   0.001  -0.085  -0.000   0.001  -0.015
 -0.000   0.002   0.057   0.001  -0.000  -0.002  -0.000   0.000
  0.000  -0.015   0.001  -0.014   0.001  -0.000   0.095  -0.000
 -0.000   0.001  -0.000   0.000  -0.015   0.000  -0.000   0.063


------------------------ aborting loop because EDIFF is reached ----------------------------------------


    CHARGE:  cpu time    0.02: real time    0.02
    FORLOC:  cpu time    0.00: real time    0.00
    FORNL :  cpu time    0.21: real time    0.21
    STRESS:  cpu time    0.21: real time    0.21
    FORCOR:  cpu time    0.03: real time    0.03
    FORHAR:  cpu time    0.00: real time    0.00
    MIXING:  cpu time    0.00: real time    0.00

  FORCE on cell =-STRESS in cart. coord.  units (eV):
  Direction    XX          YY          ZZ          XY          YZ          ZX
  --------------------------------------------------------------------------------------
  Alpha Z   638.80268   638.80268   638.80268
  Ewald   63870.09269 62510.64649-72352.41292    16.46097   -24.99889   -32.35331
  Hartree 67997.98731 67368.14647-65368.71771     4.25873   -24.49605   -17.40784
  E(xc)   -1153.72029 -1152.55175 -1153.50892     0.05882     0.20593     0.05628
  Local  ************************133210.19498   -16.84808    58.24479    49.50221
  n-local   280.40309   275.82636   271.97455    -0.48328    -1.72337    -1.17418
  augment  1430.63892  1453.18045  1450.29917    -0.75172    -1.48898     0.32339
  Kinetic  3236.28717  3314.10711  3313.23306    -2.62901    -5.36173    -0.05477
  Fock        0.00000     0.00000     0.00000     0.00000     0.00000     0.00000
  -------------------------------------------------------------------------------------
  Total      21.45320    24.47989     9.86488     0.06643     0.38168    -1.10821
  in kB      66.63597    76.03721    30.64140     0.20635     1.18555    -3.44223
  external pressure =       57.77 kB  Pullay stress =        0.00 kB


 VOLUME and BASIS-vectors are now :
 -----------------------------------------------------------------------------
  energy-cutoff  :      367.69
  volume of cell :      515.81
      direct lattice vectors                 reciprocal lattice vectors
     2.869999890  0.000000000  0.000000000     0.348432069  0.000000000  0.000000000
     0.000000000  6.250820160  0.000000000     0.000000000  0.159979007  0.000000000
     0.000000000  0.000000000 28.752460480     0.000000000  0.000000000  0.034779632

  length of vectors
     2.869999890  6.250820160 28.752460480     0.348432069  0.159979007  0.034779632


 FORCES acting on ions
    electron-ion (+dipol)            ewald-force                    non-local-force                 convergence-correction
 -----------------------------------------------------------------------------------------------
   -.313E+00 -.579E+01 0.792E+03   0.622E+00 0.648E+01 -.802E+03   -.309E+00 -.672E+00 0.102E+02   -.297E-03 0.577E-02 -.582E-02
   -.288E-02 -.229E-01 -.712E+03   0.617E-05 -.103E-01 0.705E+03   0.353E-02 0.301E-01 0.702E+01   0.324E-04 0.196E-03 0.480E-01
   0.565E-04 -.652E-03 -.208E+04   -.549E-06 0.167E-02 0.211E+04   -.638E-04 -.159E-02 -.270E+02   -.249E-04 0.871E-05 -.839E-02
   0.174E+01 0.481E+01 0.178E+04   -.178E+01 -.994E+01 -.177E+04   0.438E-01 0.519E+01 -.555E+01   -.289E-02 -.391E-01 -.411E-01
   0.212E+01 0.200E+02 0.188E+04   -.200E+01 -.169E+02 -.190E+04   -.134E+00 -.314E+01 0.171E+02   -.781E-03 0.269E-01 -.281E-01
   0.226E+00 0.399E+02 0.461E+03   -.224E+00 -.470E+02 -.461E+03   -.187E-01 0.671E+01 0.477E-01   -.292E-05 -.128E-02 0.154E-01
   0.196E+00 -.408E+02 0.461E+03   -.195E+00 0.479E+02 -.461E+03   -.167E-01 -.667E+01 -.775E-01   0.408E-04 0.961E-03 0.182E-01
   0.248E-04 0.372E+02 -.104E+04   -.628E-06 -.438E+02 0.104E+04   -.595E-04 0.623E+01 0.128E+00   0.138E-04 -.214E-02 0.472E-01
   0.508E-04 -.372E+02 -.104E+04   -.719E-06 0.438E+02 0.104E+04   -.790E-04 -.624E+01 0.107E+00   0.109E-04 0.212E-02 0.473E-01
   0.103E+01 0.179E+02 0.154E+04   -.299E+01 -.223E+02 -.153E+04   0.194E+01 0.425E+01 -.647E+01   0.521E-02 0.284E-01 -.317E-01
   0.576E-01 0.871E+00 0.135E+03   0.289E-01 -.633E+00 -.128E+03   -.985E-01 -.231E+00 -.616E+01   -.598E-04 -.124E-02 0.263E-01
   -.105E-02 0.199E-02 -.137E+04   -.154E-05 -.836E-03 0.138E+04   0.129E-02 -.123E-02 -.856E+01   0.855E-05 -.404E-04 0.403E-01
   -.128E+01 -.109E+02 0.148E+04   0.201E+01 0.126E+02 -.150E+04   -.742E+00 -.171E+01 0.110E+02   0.130E-02 -.213E-01 -.338E-01
   -.123E-01 -.455E-01 0.405E+02   0.533E-02 0.221E+00 -.482E+02   0.102E-01 -.164E+00 0.762E+01   -.189E-04 0.605E-03 0.337E-01
   0.224E-03 0.135E-01 -.147E+04   0.194E-06 0.364E-03 0.146E+04   -.309E-03 -.130E-01 0.388E+01   -.171E-04 0.378E-04 0.386E-01
   -.196E+00 0.280E+02 0.115E+04   0.416E+00 -.348E+02 -.114E+04   -.220E+00 0.679E+01 -.481E+01   -.132E-02 0.120E-01 -.202E-01
   -.246E+00 -.332E+02 0.120E+04   0.494E+00 0.412E+02 -.121E+04   -.251E+00 -.807E+01 0.547E+01   -.703E-03 0.134E-01 -.108E-01
   -.258E-02 0.372E+02 -.289E+03   -.334E-03 -.439E+02 0.289E+03   0.261E-02 0.636E+01 -.195E+00   0.185E-04 -.391E-03 0.358E-01
   -.224E-02 -.371E+02 -.289E+03   -.354E-03 0.439E+02 0.289E+03   0.224E-02 -.638E+01 -.154E+00   0.756E-05 0.433E-03 0.359E-01
   -.130E-04 0.431E+02 -.179E+04   -.149E-05 -.511E+02 0.179E+04   0.207E-04 0.771E+01 -.330E+00   0.559E-06 0.187E-02 0.248E-01
   0.220E-04 -.431E+02 -.179E+04   0.965E-06 0.511E+02 0.179E+04   -.763E-05 -.771E+01 -.338E+00   -.958E-05 -.191E-02 0.247E-01
   0.544E+00 0.860E+01 0.853E+03   -.871E+00 -.112E+02 -.848E+03   0.322E+00 0.253E+01 -.537E+01   0.831E-03 -.728E-02 0.161E-01
   -.288E-02 -.749E-01 -.621E+03   0.230E-04 0.202E-01 0.628E+03   0.352E-02 0.536E-01 -.722E+01   0.203E-04 -.203E-03 0.403E-01
   0.149E-03 -.175E-02 -.214E+04   -.526E-06 -.820E-03 0.218E+04   -.181E-03 0.297E-02 -.334E+02   -.348E-04 0.167E-04 -.507E-04
   -.187E+02 -.565E+02 0.189E+04   0.299E+02 0.107E+03 -.190E+04   -.111E+02 -.506E+02 0.480E+01   0.808E-03 0.114E+00 0.311E-01
   0.475E+00 -.101E+02 0.138E+04   -.518E+00 0.101E+02 -.138E+04   0.332E-01 -.458E-01 -.278E+00   -.653E-02 0.452E-01 -.276E-01
   -.218E-02 0.965E-01 -.338E+03   0.444E-03 -.838E-01 0.337E+03   -.326E-02 -.127E-01 -.269E-01   -.154E-04 0.414E-04 0.417E-01
   0.134E-04 0.211E-02 -.209E+04   0.192E-05 0.131E-03 0.209E+04   -.525E-05 -.148E-02 0.115E+01   -.109E-05 -.632E-05 0.314E-01
   0.116E+02 0.132E+01 0.205E+04   -.108E+02 -.734E+00 -.205E+04   -.741E+00 -.607E+00 -.342E+00   -.152E-02 0.439E-01 -.573E-01
   0.535E+00 0.240E+01 0.543E+03   -.530E+00 -.231E+01 -.544E+03   -.146E-01 0.657E-02 -.219E+00   -.532E-04 0.285E-03 0.268E-01
   -.172E-03 -.407E-03 -.122E+04   0.190E-06 -.346E-02 0.122E+04   -.252E-03 0.862E-02 -.437E-01   -.870E-05 0.206E-04 0.549E-01
   0.316E+01 -.314E+01 0.212E+04   -.305E+01 0.254E+01 -.212E+04   -.140E+00 0.609E+00 -.203E+01   -.163E-01 -.403E-01 -.349E-01
   -.575E+00 -.186E+01 0.538E+03   0.547E+00 0.182E+01 -.538E+03   0.670E-02 0.298E-01 -.187E+00   -.533E-04 -.267E-03 0.163E-01
   0.600E-04 0.374E-02 -.122E+04   0.134E-05 0.349E-02 0.122E+04   0.101E-03 -.103E-02 -.232E-01   -.152E-04 -.380E-04 0.559E-01
   0.388E+00 0.969E+01 0.135E+04   -.384E+00 -.967E+01 -.135E+04   -.129E-01 -.676E-02 0.493E-01   -.418E-02 -.355E-01 -.182E-01
   -.224E-03 -.922E-01 -.338E+03   -.410E-03 0.785E-01 0.338E+03   -.478E-03 0.273E-02 -.784E-01   0.151E-05 -.546E-04 0.437E-01
   0.337E-04 -.208E-02 -.211E+04   -.158E-05 -.164E-03 0.211E+04   -.232E-04 -.114E-03 -.250E+00   -.125E-05 0.514E-04 0.234E-01
   0.963E+01 0.680E+02 0.331E+03   -.107E+02 -.745E+02 -.334E+03   0.117E+01 0.651E+01 0.341E+01   -.172E-02 -.458E-03 -.597E-02
 -----------------------------------------------------------------------------------------------
   0.103E+02 0.391E+02 0.367E+02   0.338E-13 0.171E-12 0.114E-11   -.102E+02 -.392E+02 -.372E+02   -.283E-01 0.145E+00 0.494E+00
 
 
 POSITION                                       TOTAL-FORCE (eV/Angst)
 -----------------------------------------------------------------------------------
     -0.00338      3.15359      9.98933        -0.001196      0.020224      0.032069
      0.00000      3.12541     16.28136         0.000704     -0.002921     -0.066392
      0.00000      3.12541     22.53218        -0.000014     -0.000636     -0.700615
      1.34571      5.03259      4.85946        -0.002164      0.013107      0.028476
      1.33905      1.22939      4.34364        -0.010890     -0.043338     -0.009338
      1.43500      5.03054     11.25082        -0.016503     -0.348205      0.077591
      1.43500      1.22029     11.25082        -0.015302      0.356020     -0.068388
      1.43500      5.03054     17.50164        -0.000003     -0.423442     -0.022071
      1.43500      1.22029     17.50164         0.000001      0.416575     -0.019339
     -0.04916      2.98734      6.00179        -0.012418     -0.046690      0.002739
      0.00000      3.12541     12.47110        -0.012127      0.005096      0.201324
      0.00000      3.12541     18.72193         0.000269     -0.000197     -0.081979
     -0.02620      0.10377      6.82120        -0.009799      0.030956      0.040466
      0.00000      0.00000     13.15594         0.003188      0.011645     -0.004586
      0.00000      0.00000     19.40677        -0.000084      0.000863     -0.766962
      1.41633      1.91781      8.10206        -0.001597     -0.008584      0.059386
      1.41613      4.36357      7.91792        -0.003591     -0.028916     -0.050512
      1.43500      1.90513     14.37623        -0.000271     -0.412270      0.010094
      1.43500      4.34570     14.37623        -0.000331      0.404324      0.008808
      1.43500      1.90513     20.62705         0.000025     -0.242291      0.055898
      1.43500      4.34570     20.62705         0.000025      0.242398      0.056289
     -0.01608     -0.03241      9.32555        -0.005093     -0.037314     -0.012366
      0.00000      0.00000     15.59652         0.000710     -0.001388      0.076821
      0.00000      0.00000     21.84734        -0.000049      0.000338      0.011507
      1.70868      3.34415      2.94000         0.108388      0.003278      0.041171
     -0.01543      3.13621      7.98937        -0.016193      0.038386     -0.011023
      0.00000      3.12541     14.37623        -0.004989      0.000044     -0.087140
      0.00000      3.12541     20.62705         0.000028      0.000677      1.649395
      1.37068      3.13241      4.74532        -0.006882      0.019868     -0.021734
      1.43500      3.12541     11.25082        -0.009571      0.093907     -0.855680
      1.43500      3.12541     17.50164        -0.000414      0.004698     -0.125217
     -0.08660      0.03138      4.83425        -0.045430     -0.039024     -0.023767
      0.00000      0.00000     11.25082        -0.021202     -0.005064     -0.639013
      0.00000      0.00000     17.50164         0.000166      0.006086      0.333012
      1.41465      0.02255      8.07336        -0.012618     -0.029313     -0.018106
      1.43500      0.00000     14.37623        -0.001093     -0.011131     -0.002282
      1.43500      0.00000     20.62705         0.000026     -0.002378      0.910167
      1.55386      2.46635      2.50116         0.096294      0.014611     -0.008704
 -----------------------------------------------------------------------------------
    total drift:                               -0.000713      0.002817      0.019276


--------------------------------------------------------------------------------------------------------



  FREE ENERGIE OF THE ION-ELECTRON SYSTEM (eV)
  ---------------------------------------------------
  free  energy   TOTEN  =      -256.39733956 eV

  energy  without entropy=     -256.39611436  energy(sigma->0) =     -256.39693116
 
 d Force = 0.8468323E-03[ 0.307E-03, 0.139E-02]  d Energy = 0.8475835E-03-0.751E-06
 d Force = 0.1032600E+01[ 0.103E+01, 0.103E+01]  d Ewald  = 0.1032605E+01-0.503E-05


--------------------------------------------------------------------------------------------------------


    POTLOK:  cpu time    0.04: real time    0.04


--------------------------------------------------------------------------------------------------------




--------------------------------------------------------------------------------------------------------


  
 reached required accuracy - stopping structural energy minimisation
     LOOP+:  cpu time    3.73: real time    4.65
    4ORBIT:  cpu time    0.00: real time    0.00

 total amount of memory used by VASP on root node    35847. kBytes
========================================================================

   base      :      30000. kBytes
   nonl-proj :       1507. kBytes
   fftplans  :        772. kBytes
   grid      :       2160. kBytes
   one-center:        155. kBytes
   wavefun   :       1253. kBytes
 
  
  
 General timing and accounting informations for this job:
 ========================================================
  
                  Total CPU time used (sec):      560.466
                            User time (sec):      557.948
                          System time (sec):        2.518
                         Elapsed time (sec):      687.119
  
                   Maximum memory used (kb):       91828.
                   Average memory used (kb):           0.
  
                          Minor page faults:        41226
                          Major page faults:            3
                 Voluntary context switches:        38775
