 vasp.5.3.3 18Dez12 (build May 12 2016 12:04:25) complex                        
  
 executed on             LinuxIFC date 2019.05.16  16:30:52
 running on   80 total cores
 distrk:  each k-point on   80 cores,    1 groups
 distr:  one band on NCORES_PER_BAND=  10 cores,    8 groups


--------------------------------------------------------------------------------------------------------


 INCAR:
 POTCAR:   PAW_PBE Mn 06Sep2000                   
 POTCAR:   PAW_PBE O_s 07Sep2000                  
 POTCAR:   PAW_PBE Mn 06Sep2000                   
  local pseudopotential read in
  partial core-charges read in
  atomic valenz-charges read in
  non local Contribution for L=           2  read in
    real space projection operators read in
  non local Contribution for L=           2  read in
    real space projection operators read in
  non local Contribution for L=           0  read in
    real space projection operators read in
  non local Contribution for L=           0  read in
    real space projection operators read in
  non local Contribution for L=           1  read in
    real space projection operators read in
  non local Contribution for L=           1  read in
    real space projection operators read in
    PAW grid and wavefunctions read in
 
   number of l-projection  operators is LMAX  =           6
   number of lm-projection operators is LMMAX =          18
 
 POTCAR:   PAW_PBE O_s 07Sep2000                  
  local pseudopotential read in
  atomic valenz-charges read in
  non local Contribution for L=           0  read in
    real space projection operators read in
  non local Contribution for L=           0  read in
    real space projection operators read in
  non local Contribution for L=           1  read in
    real space projection operators read in
  non local Contribution for L=           1  read in
    real space projection operators read in
    PAW grid and wavefunctions read in
 
   number of l-projection  operators is LMAX  =           4
   number of lm-projection operators is LMMAX =           8
 

 ----------------------------------------------------------------------------- 
|                                                                             |
|  ADVICE TO THIS USER RUNNING 'VASP/VAMP'   (HEAR YOUR MASTER'S VOICE ...):  |
|                                                                             |
|      You have a (more or less) 'large supercell' and for larger cells       |
|      it might be more efficient to use real space projection operators      |
|      So try LREAL= Auto  in the INCAR   file.                               |
|      Mind: If you want to do a very accurate calculations keep the          |
|      reciprocal projection scheme          (i.e. LREAL=.FALSE.)             |
|                                                                             |
 ----------------------------------------------------------------------------- 

 PAW_PBE Mn 06Sep2000                   :
 energy of atom  1       EATOM= -416.8732
 kinetic energy error for atom=    0.0155 (will be added to EATOM!!)
 PAW_PBE O_s 07Sep2000                  :
 energy of atom  2       EATOM= -432.2909
 kinetic energy error for atom=    0.0182 (will be added to EATOM!!)
 
 
 POSCAR: (Mn21 O44)4  (P1) ~ CONTCAR (VASP)      
  positions in direct lattice
  velocities in cartesian coordinates
  No initial velocities read in
 exchange correlation table for  LEXCH =        8
   RHO(1)=    0.500       N(1)  =     2000
   RHO(2)=  100.500       N(2)  =     4000
 


--------------------------------------------------------------------------------------------------------


 ion  position               nearest neighbor table
   1  0.455  0.398  0.182- 207 1.90 169 1.90 253 1.98  97 1.98 213 2.14 159 2.14  38 3.03  37 3.03
                            63 3.03  64 3.03
   2  0.455  0.398  0.682- 208 1.90 170 1.90 254 1.98  98 1.98 214 2.14 160 2.14  64 3.03  37 3.03
                            38 3.03  63 3.03
   3  0.955  0.398  0.182- 205 1.90 171 1.90  99 1.98 255 1.98 157 2.14 215 2.14  40 3.03  61 3.03
                            39 3.03  62 3.03
   4  0.955  0.398  0.682- 206 1.90 172 1.90 256 1.98 100 1.98 158 2.14 216 2.14  62 3.03  39 3.03
                            40 3.03  61 3.03
   5  0.159  0.295  0.364- 161 1.90 210 1.90  85 1.98  89 1.98 105 2.14 165 2.14  42 3.03   9 3.03
                            41 3.03  10 3.03
   6  0.159  0.295  0.864- 209 1.90 162 1.90  86 1.98  90 1.98 106 2.14 166 2.14  10 3.03  41 3.03
                             9 3.03  42 3.03
   7  0.659  0.295  0.364- 163 1.90 212 1.90  87 1.98  91 1.98 107 2.14 167 2.14  44 3.03  43 3.03
                            11 3.03  12 3.03
   8  0.659  0.295  0.864- 164 1.90 211 1.90  88 1.98  92 1.98 108 2.14 168 2.14  12 3.03  43 3.03
                            44 3.03  11 3.03
   9  0.227  0.261  0.091- 165 1.90  90 1.90 221 1.98 209 1.98 161 2.14  94 2.14   5 3.03   6 3.03
                            45 3.03  46 3.03
  10  0.227  0.261  0.591- 166 1.90  89 1.90 222 1.98 210 1.98 162 2.14  93 2.14   6 3.03   5 3.03
                            46 3.03  45 3.03
  11  0.727  0.261  0.091-  92 1.90 167 1.90 211 1.98 223 1.98 163 2.14  96 2.14   7 3.03   8 3.03
                            47 3.03  48 3.03
  12  0.727  0.261  0.591-  91 1.90 168 1.90 212 1.98 224 1.98 164 2.14  95 2.14   8 3.03  48 3.03
                             7 3.03  47 3.03
  13  0.364  0.193  0.045- 101 1.90 186 1.90  94 1.98 121 1.98 174 2.14 221 2.14  45 3.03  65 3.03
                            46 3.03  66 3.03
  14  0.364  0.193  0.545- 102 1.90 185 1.90  93 1.98 122 1.98 173 2.14 222 2.14  46 3.03  66 3.03
                            65 3.03  45 3.03
  15  0.864  0.193  0.045- 103 1.90 188 1.90  96 1.98 123 1.98 176 2.14 223 2.14  47 3.03  67 3.03
                            68 3.03  48 3.03
  16  0.864  0.193  0.545- 104 1.90 187 1.90  95 1.98 124 1.98 224 2.14 175 2.14  48 3.03  68 3.03
                            67 3.03  47 3.03
  17  0.068  0.841  0.227- 177 1.90 217 1.90 113 1.98 131 2.14 181 2.14  22 3.03  21 3.03
  18  0.068  0.841  0.727- 218 1.90 178 1.90 114 1.98 132 2.14 182 2.14  21 3.03  22 3.03
  19  0.568  0.841  0.227- 179 1.90 219 1.90 115 1.98 129 2.14 183 2.14  24 3.03  23 3.03
  20  0.568  0.841  0.727- 220 1.90 180 1.90 116 1.98 130 2.14 184 2.14  23 3.03  24 3.03
  21  0.136  0.807  0.455- 113 1.90 182 1.90 230 1.98 217 1.98 178 2.14 117 2.14  17 3.03  18 3.03
                            49 3.03  50 3.03
  22  0.136  0.807  0.955- 181 1.90 114 1.90 229 1.98 218 1.98 177 2.14 118 2.14  17 3.03  49 3.03
                            18 3.03  50 3.03
  23  0.636  0.807  0.455- 184 1.90 115 1.90 232 1.98 219 1.98 180 2.14 119 2.14  52 3.03  51 3.03
                            20 3.03  19 3.03
  24  0.636  0.807  0.955- 183 1.90 116 1.90 231 1.98 220 1.98 179 2.14 120 2.14  19 3.03  51 3.03
                            20 3.03  52 3.03
  25  0.273  0.739  0.409- 201 1.90 126 1.90 117 1.98 145 1.98 189 2.14 230 2.14  49 3.03  50 3.03
                            70 3.03  69 3.03
  26  0.273  0.739  0.909- 202 1.90 125 1.90 118 1.98 146 1.98 190 2.14 229 2.14  50 3.03  49 3.03
                            70 3.03  69 3.03
  27  0.773  0.739  0.409- 203 1.90 128 1.90 119 1.98 147 1.98 232 2.14 191 2.14  51 3.03  52 3.03
                            71 3.03  72 3.03
  28  0.773  0.739  0.909- 204 1.90 127 1.90 120 1.98 148 1.98 192 2.14 231 2.14  52 3.03  51 3.03
                            72 3.03  71 3.03
  29  0.477  0.636  0.091- 227 1.90 194 1.90 133 1.98 137 1.98 153 2.14 200 2.14  54 3.03  53 3.03
                            36 3.03  35 3.03
  30  0.477  0.636  0.591- 228 1.90 193 1.90 134 1.98 138 1.98 154 2.14 199 2.14  54 3.03  53 3.03
                            36 3.03  35 3.03
  31  0.977  0.636  0.091- 225 1.90 196 1.90 135 1.98 139 1.98 198 2.14 155 2.14  55 3.03  56 3.03
                            34 3.03  33 3.03
  32  0.977  0.636  0.591- 226 1.90 195 1.90 136 1.98 140 1.98 156 2.14 197 2.14  56 3.03  55 3.03
                            34 3.03  33 3.03
  33  0.045  0.602  0.318- 139 1.90 197 1.90 245 1.98 225 1.98 195 2.14 141 2.14  31 3.03  32 3.03
                            74 3.03  73 3.03
  34  0.045  0.602  0.818- 198 1.90 140 1.90 246 1.98 226 1.98 196 2.14 142 2.14  31 3.03  73 3.03
                            32 3.03  74 3.03
  35  0.545  0.602  0.318- 137 1.90 199 1.90 247 1.98 227 1.98 193 2.14 143 2.14  29 3.03  30 3.03
                            75 3.03  76 3.03
  36  0.545  0.602  0.818- 200 1.90 138 1.90 248 1.98 228 1.98 194 2.14 144 2.14  29 3.03  30 3.03
                            75 3.03  76 3.03
  37  0.386  0.432  0.455- 213 1.90 254 1.90 241 1.98 170 1.98 207 2.14 250 2.14   1 3.03   2 3.03
                            58 3.03  57 3.03
  38  0.386  0.432  0.955- 253 1.90 214 1.90 169 1.98 242 1.98 249 2.14 208 2.14   1 3.03  57 3.03
                             2 3.03  58 3.03
  39  0.886  0.432  0.455- 256 1.90 215 1.90 243 1.98 172 1.98 205 2.14 252 2.14   3 3.03   4 3.03
                            60 3.03  59 3.03
  40  0.886  0.432  0.955- 255 1.90 216 1.90 171 1.98 244 1.98 206 2.14 251 2.14   3 3.03  59 3.03
                             4 3.03  60 3.03
  41  0.091  0.329  0.136- 106 1.90  85 1.90 157 1.98 161 1.98  99 2.14 209 2.14  61 3.03   6 3.03
                             5 3.03  62 3.03
  42  0.091  0.329  0.636- 105 1.90  86 1.90 158 1.98 162 1.98 210 2.14 100 2.14  62 3.03   5 3.03
                            61 3.03   6 3.03
  43  0.591  0.329  0.136- 108 1.90  87 1.90 159 1.98 163 1.98  97 2.14 211 2.14  63 3.03   8 3.03
                             7 3.03  64 3.03
  44  0.591  0.329  0.636- 107 1.90  88 1.90 160 1.98 164 1.98  98 2.14 212 2.14  64 3.03   7 3.03
                            63 3.03   8 3.03
  45  0.295  0.227  0.318- 221 1.90  93 1.90 185 1.98 165 1.98 101 2.14  89 2.14  13 3.03  14 3.03
                             9 3.03  10 3.03
  46  0.295  0.227  0.818- 222 1.90  94 1.90 186 1.98 166 1.98 102 2.14  90 2.14  14 3.03  13 3.03
                            10 3.03   9 3.03
  47  0.795  0.227  0.318- 223 1.90  95 1.90 167 1.98 187 1.98  91 2.14 103 2.14  15 3.03  11 3.03
                            16 3.03  12 3.03
  48  0.795  0.227  0.818- 224 1.90  96 1.90 168 1.98 188 1.98  92 2.14 104 2.14  16 3.03  12 3.03
                            15 3.03  11 3.03
  49  0.205  0.773  0.182- 229 1.90 117 1.90 201 1.98 181 1.98 125 2.14 113 2.14  25 3.03  26 3.03
                            22 3.03  21 3.03
  50  0.205  0.773  0.682- 230 1.90 118 1.90 202 1.98 182 1.98 126 2.14 114 2.14  26 3.03  25 3.03
                            21 3.03  22 3.03
  51  0.705  0.773  0.182- 231 1.90 119 1.90 203 1.98 183 1.98 127 2.14 115 2.14  27 3.03  28 3.03
                            24 3.03  23 3.03
  52  0.705  0.773  0.682- 232 1.90 120 1.90 204 1.98 184 1.98 128 2.14 116 2.14  28 3.03  27 3.03
                            23 3.03  24 3.03
  53  0.409  0.671  0.364- 153 1.90 134 1.90 193 1.98 189 1.98 227 2.14 145 2.14  29 3.03  30 3.03
                            70 3.03  69 3.03
  54  0.409  0.671  0.864- 154 1.90 133 1.90 194 1.98 190 1.98 228 2.14 146 2.14  30 3.03  29 3.03
                            69 3.03  70 3.03
  55  0.909  0.671  0.364- 155 1.90 136 1.90 195 1.98 191 1.98 225 2.14 147 2.14  31 3.03  32 3.03
                            71 3.03  72 3.03
  56  0.909  0.671  0.864- 156 1.90 135 1.90 196 1.98 192 1.98 226 2.14 148 2.14  32 3.03  31 3.03
                            72 3.03  71 3.03
  57  0.318  0.466  0.227- 241 1.90 249 1.90 237 1.98 213 1.98 257 2.14 253 2.14  81 3.03  82 3.03
                            38 3.03  37 3.03
  58  0.318  0.466  0.727- 242 1.90 250 1.90 238 1.98 214 1.98 258 2.14 254 2.14  81 3.03  82 3.03
                            37 3.03  38 3.03
  59  0.818  0.466  0.227- 243 1.90 251 1.90 239 1.98 215 1.98 259 2.14 255 2.14  83 3.03  84 3.03
                            40 3.03  39 3.03
  60  0.818  0.466  0.727- 244 1.90 252 1.90 240 1.98 216 1.98 260 2.14 256 2.14  83 3.03  84 3.03
                            39 3.03  40 3.03
  61  0.023  0.364  0.409- 158 1.90  99 1.90 105 1.98 205 1.98  85 2.14 172 2.14  42 3.03  41 3.03
                             3 3.03   4 3.03
  62  0.023  0.364  0.909- 100 1.90 157 1.90 106 1.98 206 1.98  86 2.14 171 2.14  42 3.03   4 3.03
                            41 3.03   3 3.03
  63  0.523  0.364  0.409-  97 1.90 160 1.90 107 1.98 207 1.98 170 2.14  87 2.14  44 3.03  43 3.03
                             1 3.03   2 3.03
  64  0.523  0.364  0.909-  98 1.90 159 1.90 108 1.98 208 1.98 169 2.14  88 2.14  44 3.03   2 3.03
                            43 3.03   1 3.03
  65  0.432  0.159  0.273- 173 1.90 121 1.90 101 1.98 111 2.14 185 2.14  13 3.03  14 3.03
  66  0.432  0.159  0.773- 122 1.90 174 1.90 102 1.98 112 2.14 186 2.14  14 3.03  13 3.03
  67  0.932  0.159  0.273- 175 1.90 123 1.90 103 1.98 109 2.14 187 2.14  15 3.03  16 3.03
  68  0.932  0.159  0.773- 124 1.90 176 1.90 104 1.98 110 2.14 188 2.14  16 3.03  15 3.03
  69  0.341  0.705  0.136- 189 1.90 146 1.90 153 1.98 125 1.98 201 2.14 133 2.14  25 3.03  54 3.03
                            53 3.03  26 3.03
  70  0.341  0.705  0.636- 190 1.90 145 1.90 154 1.98 126 1.98 202 2.14 134 2.14  26 3.03  25 3.03
                            53 3.03  54 3.03
  71  0.841  0.705  0.136- 191 1.90 148 1.90 155 1.98 127 1.98 135 2.14 203 2.14  55 3.03  27 3.03
                            56 3.03  28 3.03
  72  0.841  0.705  0.636- 192 1.90 147 1.90 156 1.98 128 1.98 136 2.14 204 2.14  28 3.03  56 3.03
                            55 3.03  27 3.03
  73  0.114  0.568  0.045- 246 1.90 141 1.90 233 1.98 198 1.98 139 2.14 150 2.14  77 3.03  78 3.03
                            34 3.03  33 3.03
  74  0.114  0.568  0.545- 245 1.90 142 1.90 234 1.98 197 1.98 140 2.14 149 2.14  78 3.03  77 3.03
                            33 3.03  34 3.03
  75  0.614  0.568  0.045- 248 1.90 143 1.90 235 1.98 200 1.98 152 2.14 137 2.14  79 3.03  80 3.03
                            36 3.03  35 3.03
  76  0.614  0.568  0.545- 247 1.90 144 1.90 236 1.98 199 1.98 151 2.14 138 2.14  80 3.03  79 3.03
                            35 3.03  36 3.03
  77  0.182  0.534  0.273- 149 1.90 233 1.90 141 1.98 257 1.98 245 2.14 237 2.14  73 3.03  74 3.03
                            82 3.03  81 3.03
  78  0.182  0.534  0.773- 234 1.90 150 1.90 142 1.98 258 1.98 246 2.14 238 2.14  74 3.03  73 3.03
                            82 3.03  81 3.03
  79  0.682  0.534  0.273- 235 1.90 151 1.90 143 1.98 259 1.98 247 2.14 239 2.14  75 3.03  76 3.03
                            83 3.03  84 3.03
  80  0.682  0.534  0.773- 236 1.90 152 1.90 144 1.98 260 1.98 248 2.14 240 2.14  76 3.03  75 3.03
                            84 3.03  83 3.03
  81  0.250  0.500  0.000- 258 1.90 237 1.90 150 1.98 249 1.98 233 2.14 242 2.14  58 3.03  57 3.03
                            77 3.03  78 3.03
  82  0.250  0.500  0.500- 257 1.90 238 1.90 149 1.98 250 1.98 241 2.14 234 2.14  57 3.03  58 3.03
                            78 3.03  77 3.03
  83  0.750  0.500  0.000- 260 1.90 239 1.90 152 1.98 251 1.98 235 2.14 244 2.14  60 3.03  59 3.03
                            79 3.03  80 3.03
  84  0.750  0.500  0.500- 259 1.90 240 1.90 151 1.98 252 1.98 243 2.14 236 2.14  59 3.03  60 3.03
                            80 3.03  79 3.03
  85  0.146  0.340  0.285-  41 1.90   5 1.98  61 2.14
  86  0.146  0.340  0.785-  42 1.90   6 1.98  62 2.14
  87  0.646  0.340  0.285-  43 1.90   7 1.98  63 2.14
  88  0.646  0.340  0.785-  44 1.90   8 1.98  64 2.14
  89  0.172  0.251  0.443-  10 1.90   5 1.98  45 2.14
  90  0.172  0.251  0.943-   9 1.90   6 1.98  46 2.14
  91  0.672  0.251  0.443-  12 1.90   7 1.98  47 2.14
  92  0.672  0.251  0.943-  11 1.90   8 1.98  48 2.14
  93  0.351  0.237  0.466-  45 1.90  14 1.98  10 2.14
  94  0.351  0.237  0.966-  46 1.90  13 1.98   9 2.14
  95  0.851  0.237  0.466-  47 1.90  16 1.98  12 2.14
  96  0.851  0.237  0.966-  48 1.90  15 1.98  11 2.14
  97  0.467  0.353  0.261-  63 1.90   1 1.98  43 2.14
  98  0.467  0.353  0.761-  64 1.90   2 1.98  44 2.14
  99  0.967  0.353  0.261-  61 1.90   3 1.98  41 2.14
 100  0.967  0.353  0.761-  62 1.90   4 1.98  42 2.14
 101  0.419  0.203  0.194-  13 1.90  65 1.98  45 2.14
 102  0.419  0.203  0.694-  14 1.90  66 1.98  46 2.14
 103  0.919  0.203  0.194-  15 1.90  67 1.98  47 2.14
 104  0.919  0.203  0.694-  16 1.90  68 1.98  48 2.14
 105  0.036  0.319  0.488-  42 1.90  61 1.98   5 2.14
 106  0.036  0.319  0.988-  41 1.90  62 1.98   6 2.14
 107  0.536  0.319  0.488-  44 1.90  63 1.98   7 2.14
 108  0.536  0.319  0.988-  43 1.90  64 1.98   8 2.14
 109  0.055  0.135  0.148-  67 2.14
 110  0.055  0.135  0.648-  68 2.14
 111  0.555  0.135  0.148-  65 2.14
 112  0.555  0.135  0.648-  66 2.14
 113  0.081  0.797  0.306-  21 1.90  17 1.98  49 2.14
 114  0.081  0.797  0.806-  22 1.90  18 1.98  50 2.14
 115  0.581  0.797  0.306-  23 1.90  19 1.98  51 2.14
 116  0.581  0.797  0.806-  24 1.90  20 1.98  52 2.14
 117  0.260  0.783  0.330-  49 1.90  25 1.98  21 2.14
 118  0.260  0.783  0.830-  50 1.90  26 1.98  22 2.14
 119  0.760  0.783  0.330-  51 1.90  27 1.98  23 2.14
 120  0.760  0.783  0.830-  52 1.90  28 1.98  24 2.14
 121  0.376  0.148  0.125-  65 1.90  13 1.98
 122  0.376  0.148  0.625-  66 1.90  14 1.98
 123  0.876  0.148  0.125-  67 1.90  15 1.98
 124  0.876  0.148  0.625-  68 1.90  16 1.98
 125  0.328  0.749  0.057-  26 1.90  69 1.98  49 2.14
 126  0.328  0.749  0.557-  25 1.90  70 1.98  50 2.14
 127  0.828  0.749  0.057-  28 1.90  71 1.98  51 2.14
 128  0.828  0.749  0.557-  27 1.90  72 1.98  52 2.14
 129  0.445  0.865  0.352-  19 2.14
 130  0.445  0.865  0.852-  20 2.14
 131  0.945  0.865  0.352-  17 2.14
 132  0.945  0.865  0.852-  18 2.14
 133  0.464  0.681  0.012-  54 1.90  29 1.98  69 2.14
 134  0.464  0.681  0.512-  53 1.90  30 1.98  70 2.14
 135  0.964  0.681  0.012-  56 1.90  31 1.98  71 2.14
 136  0.964  0.681  0.512-  55 1.90  32 1.98  72 2.14
 137  0.490  0.592  0.170-  35 1.90  29 1.98  75 2.14
 138  0.490  0.592  0.670-  36 1.90  30 1.98  76 2.14
 139  0.990  0.592  0.170-  33 1.90  31 1.98  73 2.14
 140  0.990  0.592  0.670-  34 1.90  32 1.98  74 2.14
 141  0.169  0.579  0.194-  73 1.90  77 1.98  33 2.14
 142  0.169  0.579  0.694-  74 1.90  78 1.98  34 2.14
 143  0.669  0.579  0.194-  75 1.90  79 1.98  35 2.14
 144  0.669  0.579  0.694-  76 1.90  80 1.98  36 2.14
 145  0.286  0.694  0.488-  70 1.90  25 1.98  53 2.14
 146  0.286  0.694  0.988-  69 1.90  26 1.98  54 2.14
 147  0.786  0.694  0.488-  72 1.90  27 1.98  55 2.14
 148  0.786  0.694  0.988-  71 1.90  28 1.98  56 2.14
 149  0.237  0.545  0.421-  77 1.90  82 1.98  74 2.14
 150  0.237  0.545  0.921-  78 1.90  81 1.98  73 2.14
 151  0.737  0.545  0.421-  79 1.90  84 1.98  76 2.14
 152  0.737  0.545  0.921-  80 1.90  83 1.98  75 2.14
 153  0.354  0.660  0.215-  53 1.90  69 1.98  29 2.14
 154  0.354  0.660  0.715-  54 1.90  70 1.98  30 2.14
 155  0.854  0.660  0.215-  55 1.90  71 1.98  31 2.14
 156  0.854  0.660  0.715-  56 1.90  72 1.98  32 2.14
 157  0.078  0.374  0.057-  62 1.90  41 1.98   3 2.14
 158  0.078  0.374  0.557-  61 1.90  42 1.98   4 2.14
 159  0.578  0.374  0.057-  64 1.90  43 1.98   1 2.14
 160  0.578  0.374  0.557-  63 1.90  44 1.98   2 2.14
 161  0.104  0.285  0.215-   5 1.90  41 1.98   9 2.14
 162  0.104  0.285  0.715-   6 1.90  42 1.98  10 2.14
 163  0.604  0.285  0.215-   7 1.90  43 1.98  11 2.14
 164  0.604  0.285  0.715-   8 1.90  44 1.98  12 2.14
 165  0.283  0.272  0.239-   9 1.90  45 1.98   5 2.14
 166  0.283  0.272  0.739-  10 1.90  46 1.98   6 2.14
 167  0.783  0.272  0.239-  11 1.90  47 1.98   7 2.14
 168  0.783  0.272  0.739-  12 1.90  48 1.98   8 2.14
 169  0.399  0.387  0.034-   1 1.90  38 1.98  64 2.14
 170  0.399  0.387  0.534-   2 1.90  37 1.98  63 2.14
 171  0.899  0.387  0.034-   3 1.90  40 1.98  62 2.14
 172  0.899  0.387  0.534-   4 1.90  39 1.98  61 2.14
 173  0.487  0.169  0.421-  65 1.90  14 2.14
 174  0.487  0.169  0.921-  66 1.90  13 2.14
 175  0.987  0.169  0.421-  67 1.90  16 2.14
 176  0.987  0.169  0.921-  68 1.90  15 2.14
 177  0.013  0.831  0.079-  17 1.90  22 2.14
 178  0.013  0.831  0.579-  18 1.90  21 2.14
 179  0.513  0.831  0.079-  19 1.90  24 2.14
 180  0.513  0.831  0.579-  20 1.90  23 2.14
 181  0.192  0.817  0.103-  22 1.90  49 1.98  17 2.14
 182  0.192  0.817  0.603-  21 1.90  50 1.98  18 2.14
 183  0.692  0.817  0.103-  24 1.90  51 1.98  19 2.14
 184  0.692  0.817  0.603-  23 1.90  52 1.98  20 2.14
 185  0.308  0.183  0.397-  14 1.90  45 1.98  65 2.14
 186  0.308  0.183  0.897-  13 1.90  46 1.98  66 2.14
 187  0.808  0.183  0.397-  16 1.90  47 1.98  67 2.14
 188  0.808  0.183  0.897-  15 1.90  48 1.98  68 2.14
 189  0.396  0.715  0.285-  69 1.90  53 1.98  25 2.14
 190  0.396  0.715  0.785-  70 1.90  54 1.98  26 2.14
 191  0.896  0.715  0.285-  71 1.90  55 1.98  27 2.14
 192  0.896  0.715  0.785-  72 1.90  56 1.98  28 2.14
 193  0.422  0.626  0.443-  30 1.90  53 1.98  35 2.14
 194  0.422  0.626  0.943-  29 1.90  54 1.98  36 2.14
 195  0.922  0.626  0.443-  32 1.90  55 1.98  33 2.14
 196  0.922  0.626  0.943-  31 1.90  56 1.98  34 2.14
 197  0.101  0.613  0.466-  33 1.90  74 1.98  32 2.14
 198  0.101  0.613  0.966-  34 1.90  73 1.98  31 2.14
 199  0.601  0.613  0.466-  35 1.90  76 1.98  30 2.14
 200  0.601  0.613  0.966-  36 1.90  75 1.98  29 2.14
 201  0.217  0.728  0.261-  25 1.90  49 1.98  69 2.14
 202  0.217  0.728  0.761-  26 1.90  50 1.98  70 2.14
 203  0.717  0.728  0.261-  27 1.90  51 1.98  71 2.14
 204  0.717  0.728  0.761-  28 1.90  52 1.98  72 2.14
 205  0.010  0.408  0.330-   3 1.90  61 1.98  39 2.14
 206  0.010  0.408  0.830-   4 1.90  62 1.98  40 2.14
 207  0.510  0.408  0.330-   1 1.90  63 1.98  37 2.14
 208  0.510  0.408  0.830-   2 1.90  64 1.98  38 2.14
 209  0.214  0.306  0.012-   6 1.90   9 1.98  41 2.14
 210  0.214  0.306  0.512-   5 1.90  10 1.98  42 2.14
 211  0.714  0.306  0.012-   8 1.90  11 1.98  43 2.14
 212  0.714  0.306  0.512-   7 1.90  12 1.98  44 2.14
 213  0.331  0.421  0.306-  37 1.90  57 1.98   1 2.14
 214  0.331  0.421  0.806-  38 1.90  58 1.98   2 2.14
 215  0.831  0.421  0.306-  39 1.90  59 1.98   3 2.14
 216  0.831  0.421  0.806-  40 1.90  60 1.98   4 2.14
 217  0.124  0.852  0.375-  17 1.90  21 1.98
 218  0.124  0.852  0.875-  18 1.90  22 1.98
 219  0.624  0.852  0.375-  19 1.90  23 1.98
 220  0.624  0.852  0.875-  20 1.90  24 1.98
 221  0.240  0.217  0.170-  45 1.90   9 1.98  13 2.14
 222  0.240  0.217  0.670-  46 1.90  10 1.98  14 2.14
 223  0.740  0.217  0.170-  47 1.90  11 1.98  15 2.14
 224  0.740  0.217  0.670-  48 1.90  12 1.98  16 2.14
 225  0.033  0.647  0.239-  31 1.90  33 1.98  55 2.14
 226  0.033  0.647  0.739-  32 1.90  34 1.98  56 2.14
 227  0.533  0.647  0.239-  29 1.90  35 1.98  53 2.14
 228  0.533  0.647  0.739-  30 1.90  36 1.98  54 2.14
 229  0.149  0.763  0.034-  49 1.90  22 1.98  26 2.14
 230  0.149  0.763  0.534-  50 1.90  21 1.98  25 2.14
 231  0.649  0.763  0.034-  51 1.90  24 1.98  28 2.14
 232  0.649  0.763  0.534-  52 1.90  23 1.98  27 2.14
 233  0.126  0.524  0.125-  77 1.90  73 1.98  81 2.14
 234  0.126  0.524  0.625-  78 1.90  74 1.98  82 2.14
 235  0.626  0.524  0.125-  79 1.90  75 1.98  83 2.14
 236  0.626  0.524  0.625-  80 1.90  76 1.98  84 2.14
 237  0.305  0.510  0.148-  81 1.90  57 1.98  77 2.14
 238  0.305  0.510  0.648-  82 1.90  58 1.98  78 2.14
 239  0.805  0.510  0.148-  83 1.90  59 1.98  79 2.14
 240  0.805  0.510  0.648-  84 1.90  60 1.98  80 2.14
 241  0.374  0.476  0.375-  57 1.90  37 1.98  82 2.14
 242  0.374  0.476  0.875-  58 1.90  38 1.98  81 2.14
 243  0.874  0.476  0.375-  59 1.90  39 1.98  84 2.14
 244  0.874  0.476  0.875-  60 1.90  40 1.98  83 2.14
 245  0.058  0.558  0.397-  74 1.90  33 1.98  77 2.14
 246  0.058  0.558  0.897-  73 1.90  34 1.98  78 2.14
 247  0.558  0.558  0.397-  76 1.90  35 1.98  79 2.14
 248  0.558  0.558  0.897-  75 1.90  36 1.98  80 2.14
 249  0.263  0.455  0.079-  57 1.90  81 1.98  38 2.14
 250  0.263  0.455  0.579-  58 1.90  82 1.98  37 2.14
 251  0.763  0.455  0.079-  59 1.90  83 1.98  40 2.14
 252  0.763  0.455  0.579-  60 1.90  84 1.98  39 2.14
 253  0.442  0.442  0.103-  38 1.90   1 1.98  57 2.14
 254  0.442  0.442  0.603-  37 1.90   2 1.98  58 2.14
 255  0.942  0.442  0.103-  40 1.90   3 1.98  59 2.14
 256  0.942  0.442  0.603-  39 1.90   4 1.98  60 2.14
 257  0.195  0.490  0.352-  82 1.90  77 1.98  57 2.14
 258  0.195  0.490  0.852-  81 1.90  78 1.98  58 2.14
 259  0.695  0.490  0.352-  84 1.90  79 1.98  59 2.14
 260  0.695  0.490  0.852-  83 1.90  80 1.98  60 2.14
 
  LATTYP: Found a simple monoclinic cell.
 ALAT       =    19.3854362166
 B/A-ratio  =     2.0682226906
 C/A-ratio  =     1.4159122683
 COS(beta)  =    -0.9643143832
  
  Lattice vectors:
  
 A1 = ( -16.6908567900,   0.0000000000,  -9.8595353300)
 A2 = (   0.0000000000, -40.0933990500,   0.0000000000)
 A3 = (  19.0933281900,   0.0000000000,  19.7190706600)


Analysis of symmetry for initial positions (statically):
=====================================================================
 Subroutine PRICEL returns following result:
 
  LATTYP: Found a simple monoclinic cell.
 ALAT       =     9.6927184438
 B/A-ratio  =     4.1364452380
 C/A-ratio  =     1.4159122837
 COS(beta)  =    -0.9643143832
  
  Lattice vectors:
  
 A1 = (  -8.3454286100,   0.0000000000,  -4.9297679608)
 A2 = (   0.0000000000, -40.0933990500,   0.0000000000)
 A3 = (   9.5466643820,   0.0000000000,   9.8595359216)
 
   4 primitive cells build up your supercell.
 

 Routine SETGRP: Setting up the symmetry group for a 
 simple monoclinic supercell.


 Subroutine GETGRP returns: Found  2 space group operations
 (whereof  2 operations were pure point group operations)
 out of a pool of  4 trial point group operations.


The static configuration has the point symmetry S_2 .


Analysis of symmetry for dynamics (positions and initial velocities):
=====================================================================
 Subroutine PRICEL returns following result:
 
  LATTYP: Found a simple monoclinic cell.
 ALAT       =     9.6927184438
 B/A-ratio  =     4.1364452380
 C/A-ratio  =     1.4159122837
 COS(beta)  =    -0.9643143832
  
  Lattice vectors:
  
 A1 = (  -8.3454286100,   0.0000000000,  -4.9297679608)
 A2 = (   0.0000000000, -40.0933990500,   0.0000000000)
 A3 = (   9.5466643820,   0.0000000000,   9.8595359216)
 
   4 primitive cells build up your supercell.
 

 Routine SETGRP: Setting up the symmetry group for a 
 simple monoclinic supercell.


 Subroutine GETGRP returns: Found  2 space group operations
 (whereof  2 operations were pure point group operations)
 out of a pool of  4 trial point group operations.


The dynamic configuration has the point symmetry S_2 .


Analysis of constrained symmetry for selective dynamics:
=====================================================================
 Subroutine PRICEL returns following result:
 
  LATTYP: Found a simple monoclinic cell.
 ALAT       =     9.6927184438
 B/A-ratio  =     4.1364452380
 C/A-ratio  =     1.4159122837
 COS(beta)  =    -0.9643143832
  
  Lattice vectors:
  
 A1 = (  -8.3454286100,   0.0000000000,  -4.9297679608)
 A2 = (   0.0000000000, -40.0933990500,   0.0000000000)
 A3 = (   9.5466643820,   0.0000000000,   9.8595359216)
 
   4 primitive cells build up your supercell.
 

 Routine SETGRP: Setting up the symmetry group for a 
 simple monoclinic supercell.


 Subroutine GETGRP returns: Found  1 space group operations
 (whereof  1 operations were pure point group operations)
 out of a pool of  4 trial point group operations.


The constrained configuration has the point symmetry C_1 .


Analysis of magnetic symmetry:
=====================================================================

 Subroutine MAGSYM returns: Found  1 space group operations
 (whereof  1 operations were pure point group operations)
 out of a pool of  1 trial space group operations
 (whereof  1 operations were pure point group operations)
 and found also     2 'primitive' translations


The magnetic configuration has the point symmetry C_1 .


 irot  :   1
 --------------------------------------------------------------------
 isymop:   1   0   0
           0   1   0
           0   0   1

 gtrans:     0.0000000     0.0000000     0.0000000

 ptrans:     0.0000000     0.0000000     0.0000000
 rotmap:
 (   1->   1)  (   2->   2)  (   3->   3)  (   4->   4)  (   5->   5) 
 (   6->   6)  (   7->   7)  (   8->   8)  (   9->   9)  (  10->  10) 
 (  11->  11)  (  12->  12)  (  13->  13)  (  14->  14)  (  15->  15) 
 (  16->  16)  (  17->  17)  (  18->  18)  (  19->  19)  (  20->  20) 
 (  21->  21)  (  22->  22)  (  23->  23)  (  24->  24)  (  25->  25) 
 (  26->  26)  (  27->  27)  (  28->  28)  (  29->  29)  (  30->  30) 
 (  31->  31)  (  32->  32)  (  33->  33)  (  34->  34)  (  35->  35) 
 (  36->  36)  (  37->  37)  (  38->  38)  (  39->  39)  (  40->  40) 
 (  41->  41)  (  42->  42)  (  43->  43)  (  44->  44)  (  45->  45) 
 (  46->  46)  (  47->  47)  (  48->  48)  (  49->  49)  (  50->  50) 
 (  51->  51)  (  52->  52)  (  53->  53)  (  54->  54)  (  55->  55) 
 (  56->  56)  (  57->  57)  (  58->  58)  (  59->  59)  (  60->  60) 
 (  61->  61)  (  62->  62)  (  63->  63)  (  64->  64)  (  65->  65) 
 (  66->  66)  (  67->  67)  (  68->  68)  (  69->  69)  (  70->  70) 
 (  71->  71)  (  72->  72)  (  73->  73)  (  74->  74)  (  75->  75) 
 (  76->  76)  (  77->  77)  (  78->  78)  (  79->  79)  (  80->  80) 
 (  81->  81)  (  82->  82)  (  83->  83)  (  84->  84)  (  85->  85) 
 (  86->  86)  (  87->  87)  (  88->  88)  (  89->  89)  (  90->  90) 
 (  91->  91)  (  92->  92)  (  93->  93)  (  94->  94)  (  95->  95) 
 (  96->  96)  (  97->  97)  (  98->  98)  (  99->  99)  ( 100-> 100) 
 ( 101-> 101)  ( 102-> 102)  ( 103-> 103)  ( 104-> 104)  ( 105-> 105) 
 ( 106-> 106)  ( 107-> 107)  ( 108-> 108)  ( 109-> 109)  ( 110-> 110) 
 ( 111-> 111)  ( 112-> 112)  ( 113-> 113)  ( 114-> 114)  ( 115-> 115) 
 ( 116-> 116)  ( 117-> 117)  ( 118-> 118)  ( 119-> 119)  ( 120-> 120) 
 ( 121-> 121)  ( 122-> 122)  ( 123-> 123)  ( 124-> 124)  ( 125-> 125) 
 ( 126-> 126)  ( 127-> 127)  ( 128-> 128)  ( 129-> 129)  ( 130-> 130) 
 ( 131-> 131)  ( 132-> 132)  ( 133-> 133)  ( 134-> 134)  ( 135-> 135) 
 ( 136-> 136)  ( 137-> 137)  ( 138-> 138)  ( 139-> 139)  ( 140-> 140) 
 ( 141-> 141)  ( 142-> 142)  ( 143-> 143)  ( 144-> 144)  ( 145-> 145) 
 ( 146-> 146)  ( 147-> 147)  ( 148-> 148)  ( 149-> 149)  ( 150-> 150) 
 ( 151-> 151)  ( 152-> 152)  ( 153-> 153)  ( 154-> 154)  ( 155-> 155) 
 ( 156-> 156)  ( 157-> 157)  ( 158-> 158)  ( 159-> 159)  ( 160-> 160) 
 ( 161-> 161)  ( 162-> 162)  ( 163-> 163)  ( 164-> 164)  ( 165-> 165) 
 ( 166-> 166)  ( 167-> 167)  ( 168-> 168)  ( 169-> 169)  ( 170-> 170) 
 ( 171-> 171)  ( 172-> 172)  ( 173-> 173)  ( 174-> 174)  ( 175-> 175) 
 ( 176-> 176)  ( 177-> 177)  ( 178-> 178)  ( 179-> 179)  ( 180-> 180) 
 ( 181-> 181)  ( 182-> 182)  ( 183-> 183)  ( 184-> 184)  ( 185-> 185) 
 ( 186-> 186)  ( 187-> 187)  ( 188-> 188)  ( 189-> 189)  ( 190-> 190) 
 ( 191-> 191)  ( 192-> 192)  ( 193-> 193)  ( 194-> 194)  ( 195-> 195) 
 ( 196-> 196)  ( 197-> 197)  ( 198-> 198)  ( 199-> 199)  ( 200-> 200) 
 ( 201-> 201)  ( 202-> 202)  ( 203-> 203)  ( 204-> 204)  ( 205-> 205) 
 ( 206-> 206)  ( 207-> 207)  ( 208-> 208)  ( 209-> 209)  ( 210-> 210) 
 ( 211-> 211)  ( 212-> 212)  ( 213-> 213)  ( 214-> 214)  ( 215-> 215) 
 ( 216-> 216)  ( 217-> 217)  ( 218-> 218)  ( 219-> 219)  ( 220-> 220) 
 ( 221-> 221)  ( 222-> 222)  ( 223-> 223)  ( 224-> 224)  ( 225-> 225) 
 ( 226-> 226)  ( 227-> 227)  ( 228-> 228)  ( 229-> 229)  ( 230-> 230) 
 ( 231-> 231)  ( 232-> 232)  ( 233-> 233)  ( 234-> 234)  ( 235-> 235) 
 ( 236-> 236)  ( 237-> 237)  ( 238-> 238)  ( 239-> 239)  ( 240-> 240) 
 ( 241-> 241)  ( 242-> 242)  ( 243-> 243)  ( 244-> 244)  ( 245-> 245) 
 ( 246-> 246)  ( 247-> 247)  ( 248-> 248)  ( 249-> 249)  ( 250-> 250) 
 ( 251-> 251)  ( 252-> 252)  ( 253-> 253)  ( 254-> 254)  ( 255-> 255) 
 ( 256-> 256)  ( 257-> 257)  ( 258-> 258)  ( 259-> 259)  ( 260-> 260) 

 ptrans:     0.0000000     0.0000000     0.5000000
 rotmap:
 (   1->   2)  (   2->   1)  (   3->   4)  (   4->   3)  (   5->   6) 
 (   6->   5)  (   7->   8)  (   8->   7)  (   9->  10)  (  10->   9) 
 (  11->  12)  (  12->  11)  (  13->  14)  (  14->  13)  (  15->  16) 
 (  16->  15)  (  17->  18)  (  18->  17)  (  19->  20)  (  20->  19) 
 (  21->  22)  (  22->  21)  (  23->  24)  (  24->  23)  (  25->  26) 
 (  26->  25)  (  27->  28)  (  28->  27)  (  29->  30)  (  30->  29) 
 (  31->  32)  (  32->  31)  (  33->  34)  (  34->  33)  (  35->  36) 
 (  36->  35)  (  37->  38)  (  38->  37)  (  39->  40)  (  40->  39) 
 (  41->  42)  (  42->  41)  (  43->  44)  (  44->  43)  (  45->  46) 
 (  46->  45)  (  47->  48)  (  48->  47)  (  49->  50)  (  50->  49) 
 (  51->  52)  (  52->  51)  (  53->  54)  (  54->  53)  (  55->  56) 
 (  56->  55)  (  57->  58)  (  58->  57)  (  59->  60)  (  60->  59) 
 (  61->  62)  (  62->  61)  (  63->  64)  (  64->  63)  (  65->  66) 
 (  66->  65)  (  67->  68)  (  68->  67)  (  69->  70)  (  70->  69) 
 (  71->  72)  (  72->  71)  (  73->  74)  (  74->  73)  (  75->  76) 
 (  76->  75)  (  77->  78)  (  78->  77)  (  79->  80)  (  80->  79) 
 (  81->  82)  (  82->  81)  (  83->  84)  (  84->  83)  (  85->  86) 
 (  86->  85)  (  87->  88)  (  88->  87)  (  89->  90)  (  90->  89) 
 (  91->  92)  (  92->  91)  (  93->  94)  (  94->  93)  (  95->  96) 
 (  96->  95)  (  97->  98)  (  98->  97)  (  99-> 100)  ( 100->  99) 
 ( 101-> 102)  ( 102-> 101)  ( 103-> 104)  ( 104-> 103)  ( 105-> 106) 
 ( 106-> 105)  ( 107-> 108)  ( 108-> 107)  ( 109-> 110)  ( 110-> 109) 
 ( 111-> 112)  ( 112-> 111)  ( 113-> 114)  ( 114-> 113)  ( 115-> 116) 
 ( 116-> 115)  ( 117-> 118)  ( 118-> 117)  ( 119-> 120)  ( 120-> 119) 
 ( 121-> 122)  ( 122-> 121)  ( 123-> 124)  ( 124-> 123)  ( 125-> 126) 
 ( 126-> 125)  ( 127-> 128)  ( 128-> 127)  ( 129-> 130)  ( 130-> 129) 
 ( 131-> 132)  ( 132-> 131)  ( 133-> 134)  ( 134-> 133)  ( 135-> 136) 
 ( 136-> 135)  ( 137-> 138)  ( 138-> 137)  ( 139-> 140)  ( 140-> 139) 
 ( 141-> 142)  ( 142-> 141)  ( 143-> 144)  ( 144-> 143)  ( 145-> 146) 
 ( 146-> 145)  ( 147-> 148)  ( 148-> 147)  ( 149-> 150)  ( 150-> 149) 
 ( 151-> 152)  ( 152-> 151)  ( 153-> 154)  ( 154-> 153)  ( 155-> 156) 
 ( 156-> 155)  ( 157-> 158)  ( 158-> 157)  ( 159-> 160)  ( 160-> 159) 
 ( 161-> 162)  ( 162-> 161)  ( 163-> 164)  ( 164-> 163)  ( 165-> 166) 
 ( 166-> 165)  ( 167-> 168)  ( 168-> 167)  ( 169-> 170)  ( 170-> 169) 
 ( 171-> 172)  ( 172-> 171)  ( 173-> 174)  ( 174-> 173)  ( 175-> 176) 
 ( 176-> 175)  ( 177-> 178)  ( 178-> 177)  ( 179-> 180)  ( 180-> 179) 
 ( 181-> 182)  ( 182-> 181)  ( 183-> 184)  ( 184-> 183)  ( 185-> 186) 
 ( 186-> 185)  ( 187-> 188)  ( 188-> 187)  ( 189-> 190)  ( 190-> 189) 
 ( 191-> 192)  ( 192-> 191)  ( 193-> 194)  ( 194-> 193)  ( 195-> 196) 
 ( 196-> 195)  ( 197-> 198)  ( 198-> 197)  ( 199-> 200)  ( 200-> 199) 
 ( 201-> 202)  ( 202-> 201)  ( 203-> 204)  ( 204-> 203)  ( 205-> 206) 
 ( 206-> 205)  ( 207-> 208)  ( 208-> 207)  ( 209-> 210)  ( 210-> 209) 
 ( 211-> 212)  ( 212-> 211)  ( 213-> 214)  ( 214-> 213)  ( 215-> 216) 
 ( 216-> 215)  ( 217-> 218)  ( 218-> 217)  ( 219-> 220)  ( 220-> 219) 
 ( 221-> 222)  ( 222-> 221)  ( 223-> 224)  ( 224-> 223)  ( 225-> 226) 
 ( 226-> 225)  ( 227-> 228)  ( 228-> 227)  ( 229-> 230)  ( 230-> 229) 
 ( 231-> 232)  ( 232-> 231)  ( 233-> 234)  ( 234-> 233)  ( 235-> 236) 
 ( 236-> 235)  ( 237-> 238)  ( 238-> 237)  ( 239-> 240)  ( 240-> 239) 
 ( 241-> 242)  ( 242-> 241)  ( 243-> 244)  ( 244-> 243)  ( 245-> 246) 
 ( 246-> 245)  ( 247-> 248)  ( 248-> 247)  ( 249-> 250)  ( 250-> 249) 
 ( 251-> 252)  ( 252-> 251)  ( 253-> 254)  ( 254-> 253)  ( 255-> 256) 
 ( 256-> 255)  ( 257-> 258)  ( 258-> 257)  ( 259-> 260)  ( 260-> 259) 
 
 
 KPOINTS: Automatic mesh                          

Automatic generation of k-mesh.
Space group operators:
 irot       det(A)        alpha          n_x          n_y          n_z        tau_x        tau_y        tau_z
    1     1.000000     0.000000     1.000000     0.000000     0.000000     0.000000     0.000000     0.000000
 
 Subroutine IBZKPT returns following result:
 ===========================================
 
 Found      1 irreducible k-points:
 
 Following reciprocal coordinates:
            Coordinates               Weight
  0.000000  0.000000  0.000000      1.000000
 
 Following cartesian coordinates:
            Coordinates               Weight
  0.000000  0.000000  0.000000      1.000000
 


--------------------------------------------------------------------------------------------------------




 Dimension of arrays:
   k-points           NKPTS =      1   k-points in BZ     NKDIM =      1   number of bands    NBANDS=    992
   number of dos      NEDOS =    301   number of ions     NIONS =    260
   non local maximal  LDIM  =      6   non local SUM 2l+1 LMDIM =     18
   total plane-waves  NPLWV = 645120
   max r-space proj   IRMAX =      1   max aug-charges    IRDMAX=   4398
   dimension x,y,z NGX =    70 NGY =  192 NGZ =   48
   dimension x,y,z NGXF=   140 NGYF=  384 NGZF=   96
   support grid    NGXF=   140 NGYF=  384 NGZF=   96
   ions per type =              84 176
 NGX,Y,Z   is equivalent  to a cutoff of   8.14,  7.96,  7.86 a.u.
 NGXF,Y,Z  is equivalent  to a cutoff of  16.29, 15.92, 15.73 a.u.


 I would recommend the setting:
   dimension x,y,z NGX =    67 NGY =  188 NGZ =   48
 SYSTEM =  (Mn21 O44)4  (P1) ~ CONTCAR (VASP)      
 POSCAR =  (Mn21 O44)4  (P1) ~ CONTCAR (VASP)      

 Startparameter for this run:
   NWRITE =      1    write-flag & timer
   PREC   = normal    normal or accurate (medium, high low for compatibility)
   ISTART =      0    job   : 0-new  1-cont  2-samecut
   ICHARG =      2    charge: 1-file 2-atom 10-const
   ISPIN  =      2    spin polarized calculation?
   LNONCOLLINEAR =      F non collinear calculations
   LSORBIT =      F    spin-orbit coupling
   INIWAV =      1    electr: 0-lowe 1-rand  2-diag
   LASPH  =      F    aspherical Exc in radial PAW
   METAGGA=      F    non-selfconsistent MetaGGA calc.

 Electronic Relaxation 1
   ENCUT  =  367.7 eV  27.02 Ry    5.20 a.u.  22.34 62.69 15.87*2*pi/ulx,y,z
   ENINI  =  367.7     initial cutoff
   ENAUG  =  500.7 eV  augmentation charge cutoff
   NELM   =     60;   NELMIN=  2; NELMDL= -5     # of ELM steps 
   EDIFF  = 0.1E-03   stopping-criterion for ELM
   LREAL  =      F    real-space projection
   NLSPLINE    = F    spline interpolate recip. space projectors
   LCOMPAT=      F    compatible to vasp.4.4
   GGA_COMPAT  = T    GGA compatible to vasp.4.4-vasp.4.6
   LMAXPAW     = -100 max onsite density
   LMAXMIX     =    4 max onsite mixed and CHGCAR
   VOSKOWN=      1    Vosko Wilk Nusair interpolation
   ROPT   =    0.00000   0.00000
 Ionic relaxation
   EDIFFG = 0.1E-02   stopping-criterion for IOM
   NSW    =    100    number of steps for IOM
   NBLOCK =      1;   KBLOCK =    100    inner block; outer block 
   IBRION =      2    ionic relax: 0-MD 1-quasi-New 2-CG
   NFREE  =      1    steps in history (QN), initial steepest desc. (CG)
   ISIF   =      2    stress and relaxation
   IWAVPR =     11    prediction:  0-non 1-charg 2-wave 3-comb
   ISYM   =      2    0-nonsym 1-usesym 2-fastsym
   LCORR  =      T    Harris-Foulkes like correction to forces

   POTIM  = 0.5000    time-step for ionic-motion
   TEIN   =    0.0    initial temperature
   TEBEG  =    0.0;   TEEND  =   0.0 temperature during run
   SMASS  =  -3.00    Nose mass-parameter (am)
   estimated Nose-frequenzy (Omega)   =  0.10E-29 period in steps =****** mass=  -0.467E-26a.u.
   SCALEE = 1.0000    scale energy and forces
   NPACO  =    256;   APACO  = 16.0  distance and # of slots for P.C.
   PSTRESS=    0.0 pullay stress

  Mass of Ions in am
   POMASS =  54.94 16.00
  Ionic Valenz
   ZVAL   =   7.00  6.00
  Atomic Wigner-Seitz radii
   RWIGS  =  -1.00 -1.00
  virtual crystal weights 
   VCA    =   1.00  1.00
   NELECT =    1644.0000    total number of electrons
   NUPDOWN=      -1.0000    fix difference up-down

 DOS related values:
   EMIN   =  10.00;   EMAX   =-10.00  energy-range for DOS
   EFERMI =   0.00
   ISMEAR =     1;   SIGMA  =   0.20  broadening in eV -4-tet -1-fermi 0-gaus

 Electronic relaxation 2 (details)
   IALGO  =     38    algorithm
   LDIAG  =      T    sub-space diagonalisation (order eigenvalues)
   LSUBROT=      T    optimize rotation matrix (better conditioning)
   TURBO    =      0    0=normal 1=particle mesh
   IRESTART =      0    0=no restart 2=restart with 2 vectors
   NREBOOT  =      0    no. of reboots
   NMIN     =      0    reboot dimension
   EREF     =   0.00    reference energy to select bands
   IMIX   =      4    mixing-type and parameters
     AMIX     =   0.40;   BMIX     =  1.00
     AMIX_MAG =   1.60;   BMIX_MAG =  1.00
     AMIN     =   0.10
     WC   =   100.;   INIMIX=   1;  MIXPRE=   1;  MAXMIX= -45

 Intra band minimization:
   WEIMIN = 0.0010     energy-eigenvalue tresh-hold
   EBREAK =  0.25E-07  absolut break condition
   DEPER  =   0.30     relativ break condition  

   TIME   =   0.40     timestep for ELM

  volume/ion in A,a.u.               =      21.72       146.60
  Fermi-wavevector in a.u.,A,eV,Ry     =   1.084937  2.050234 16.015265  1.177089
  Thomas-Fermi vector in A             =   2.221039
 
 Write flags
   LWAVE  =      F    write WAVECAR
   LCHARG =      F    write CHGCAR
   LVTOT  =      F    write LOCPOT, total local potential
   LVHAR  =      F    write LOCPOT, Hartree potential only
   LELF   =      F    write electronic localiz. function (ELF)
   LORBIT =      0    0 simple, 1 ext, 2 COOP (PROOUT)


 Dipole corrections
   LMONO  =      F    monopole corrections only (constant potential shift)
   LDIPOL =      F    correct potential (dipole corrections)
   IDIPOL =      0    1-x, 2-y, 3-z, 4-all directions 
   EPSILON=  1.0000000 bulk dielectric constant

 LDA+U is selected, type is set to LDAUTYPE =  2
   angular momentum for each species LDAUL =     2   -1
   U (eV)           for each species LDAUU =   3.9  0.0
   J (eV)           for each species LDAUJ =   0.0  0.0
 Exchange correlation treatment:
   GGA     =    --    GGA type
   LEXCH   =     8    internal setting for exchange type
   VOSKOWN=      1    Vosko Wilk Nusair interpolation
   LHFCALC =     F    Hartree Fock is set to
   LHFONE  =     F    Hartree Fock one center treatment
   AEXX    =    0.0000 exact exchange contribution

 Linear response parameters
   LEPSILON=     F    determine dielectric tensor
   LRPA    =     F    only Hartree local field effects (RPA)
   LNABLA  =     F    use nabla operator in PAW spheres
   LVEL    =     F    velocity operator in full k-point grid
   LINTERFAST=   F  fast interpolation
   KINTER  =     0    interpolate to denser k-point grid
   CSHIFT  =0.1000    complex shift for real part using Kramers Kronig
   OMEGAMAX=  -1.0    maximum frequency
   DEG_THRESHOLD= 0.2000000E-02 threshold for treating states as degnerate
   RTIME   =    0.100 relaxation time in fs

 Orbital magnetization related:
   ORBITALMAG=     F  switch on orbital magnetization
   LCHIMAG   =     F  perturbation theory with respect to B field
   DQ        =  0.001000  dq finite difference perturbation B field



--------------------------------------------------------------------------------------------------------


 conjugate gradient relaxation of ions
   using selective dynamics as specified on POSCAR
 charge density and potential will be updated during run
 spin polarized calculation
 Variant of blocked Davidson
 Davidson routine will perform the subspace rotation
 perform sub-space diagonalisation
    after iterative eigenvector-optimisation
 modified Broyden-mixing scheme, WC =      100.0
 initial mixing is a Kerker type mixing with AMIX =  0.4000 and BMIX =      1.0000
 Hartree-type preconditioning will be used
 using additional bands          170
 reciprocal scheme for non local part
 use partial core corrections
 calculate Harris-corrections to forces 
   (improved forces if not selfconsistent)
 use gradient corrections 
 use of overlap-Matrix (Vanderbilt PP)
 Methfessel and Paxton  Order N= 1 SIGMA  =   0.20


--------------------------------------------------------------------------------------------------------


  energy-cutoff  :      367.69
  volume of cell :     5648.23
      direct lattice vectors                 reciprocal lattice vectors
    14.288385390  0.000000000  0.000000000     0.069986914  0.000000000 -0.017053700
     0.000000000 40.093399050  0.000000000     0.000000000  0.024941762  0.000000000
     2.402471400  0.000000000  9.859535330     0.000000000  0.000000000  0.101424658

  length of vectors
    14.288385390 40.093399050 10.148019795     0.072034692  0.024941762  0.101424658


 
 k-points in units of 2pi/SCALE and weight: Automatic mesh                          
   0.00000000  0.00000000  0.00000000       1.000
 
 k-points in reciprocal lattice and weights: Automatic mesh                          
   0.00000000  0.00000000  0.00000000       1.000
 
 position of ions in fractional coordinates (direct lattice) 
   0.45454547  0.39764786  0.18181819
   0.45454547  0.39764786  0.68181819
   0.95454550  0.39764786  0.18181819
   0.95454550  0.39764786  0.68181819
   0.15909091  0.29529572  0.36363637
   0.15909091  0.29529572  0.86363637
   0.65909088  0.29529572  0.36363637
   0.65909088  0.29529572  0.86363637
   0.22727270  0.26117834  0.09090911
   0.22727270  0.26117834  0.59090912
   0.72727269  0.26117834  0.09090911
   0.72727269  0.26117834  0.59090912
   0.36363637  0.19294357  0.04545455
   0.36363637  0.19294357  0.54545456
   0.86363637  0.19294357  0.04545455
   0.86363637  0.19294357  0.54545456
   0.06818181  0.84117383  0.22727273
   0.06818181  0.84117383  0.72727275
   0.56818181  0.84117383  0.22727273
   0.56818181  0.84117383  0.72727275
   0.13636361  0.80705643  0.45454547
   0.13636361  0.80705643  0.95454550
   0.63636363  0.80705643  0.45454547
   0.63636363  0.80705643  0.95454550
   0.27272728  0.73882169  0.40909091
   0.27272728  0.73882169  0.90909088
   0.77272725  0.73882169  0.40909091
   0.77272725  0.73882169  0.90909088
   0.47727272  0.63646954  0.09090909
   0.47727272  0.63646954  0.59090912
   0.97727275  0.63646954  0.09090909
   0.97727275  0.63646954  0.59090912
   0.04545452  0.60235214  0.31818184
   0.04545452  0.60235214  0.81818187
   0.54545450  0.60235214  0.31818184
   0.54545450  0.60235214  0.81818187
   0.38636363  0.43176523  0.45454547
   0.38636363  0.43176523  0.95454550
   0.88636363  0.43176523  0.45454547
   0.88636363  0.43176523  0.95454550
   0.09090908  0.32941309  0.13636364
   0.09090908  0.32941309  0.63636363
   0.59090906  0.32941309  0.13636364
   0.59090906  0.32941309  0.63636363
   0.29545453  0.22706094  0.31818181
   0.29545453  0.22706094  0.81818181
   0.79545450  0.22706094  0.31818181
   0.79545450  0.22706094  0.81818181
   0.20454545  0.77293903  0.18181819
   0.20454545  0.77293903  0.68181819
   0.70454544  0.77293903  0.18181819
   0.70454544  0.77293903  0.68181819
   0.40909091  0.67058688  0.36363637
   0.40909091  0.67058688  0.86363637
   0.90909088  0.67058688  0.36363637
   0.90909088  0.67058688  0.86363637
   0.31818181  0.46588263  0.22727272
   0.31818181  0.46588263  0.72727275
   0.81818181  0.46588263  0.22727272
   0.81818181  0.46588263  0.72727275
   0.02272726  0.36353046  0.40909091
   0.02272726  0.36353046  0.90909088
   0.52272725  0.36353046  0.40909091
   0.52272725  0.36353046  0.90909088
   0.43181819  0.15882619  0.27272728
   0.43181819  0.15882619  0.77272725
   0.93181819  0.15882619  0.27272728
   0.93181819  0.15882619  0.77272725
   0.34090909  0.70470429  0.13636364
   0.34090909  0.70470429  0.63636363
   0.84090912  0.70470429  0.13636364
   0.84090912  0.70470429  0.63636363
   0.11363635  0.56823474  0.04545455
   0.11363635  0.56823474  0.54545456
   0.61363637  0.56823474  0.04545455
   0.61363637  0.56823474  0.54545456
   0.18181816  0.53411740  0.27272728
   0.18181816  0.53411740  0.77272725
   0.68181813  0.53411740  0.27272728
   0.68181813  0.53411740  0.77272725
   0.24999999  0.50000000  0.00000000
   0.24999999  0.50000000  0.50000000
   0.75000000  0.50000000  0.00000000
   0.75000000  0.50000000  0.50000000
   0.14627199  0.33980170  0.28457600
   0.14627199  0.33980170  0.78457600
   0.64627200  0.33980170  0.28457600
   0.64627200  0.33980170  0.78457600
   0.17190982  0.25078973  0.44269672
   0.17190982  0.25078973  0.94269669
   0.67190981  0.25078973  0.44269672
   0.67190981  0.25078973  0.94269669
   0.35081747  0.23744956  0.46639419
   0.35081747  0.23744956  0.96639419
   0.85081744  0.23744956  0.46639419
   0.85081744  0.23744956  0.96639419
   0.46736437  0.35314187  0.26087853
   0.46736437  0.35314187  0.76087856
   0.96736437  0.35314187  0.26087853
   0.96736437  0.35314187  0.76087856
   0.41899926  0.20333217  0.19366692
   0.41899926  0.20333217  0.69366693
   0.91899926  0.20333217  0.19366692
   0.91899926  0.20333217  0.69366693
   0.03554621  0.31902450  0.48815128
   0.03554621  0.31902450  0.98815131
   0.53554618  0.31902450  0.48815128
   0.53554618  0.31902450  0.98815131
   0.05536290  0.13509741  0.14821237
   0.05536290  0.13509741  0.64821237
   0.55536288  0.13509741  0.14821237
   0.55536288  0.13509741  0.64821237
   0.08100074  0.79666781  0.30633309
   0.08100074  0.79666781  0.80633307
   0.58100074  0.79666781  0.30633309
   0.58100074  0.79666781  0.80633307
   0.25990838  0.78332764  0.33003053
   0.25990838  0.78332764  0.83003056
   0.75990838  0.78332764  0.33003053
   0.75990838  0.78332764  0.83003056
   0.37645528  0.14843757  0.12451491
   0.37645528  0.14843757  0.62451494
   0.87645531  0.14843757  0.12451491
   0.87645531  0.14843757  0.62451494
   0.32809016  0.74921030  0.05730329
   0.32809016  0.74921030  0.55730331
   0.82809019  0.74921030  0.05730329
   0.82809019  0.74921030  0.55730331
   0.44463712  0.86490262  0.35178763
   0.44463712  0.86490262  0.85178763
   0.94463712  0.86490262  0.35178763
   0.94463712  0.86490262  0.85178763
   0.46445382  0.68097550  0.01184873
   0.46445382  0.68097550  0.51184875
   0.96445382  0.68097550  0.01184873
   0.96445382  0.68097550  0.51184875
   0.49009165  0.59196353  0.16996945
   0.49009165  0.59196353  0.66996944
   0.99009168  0.59196353  0.16996945
   0.99009168  0.59196353  0.66996944
   0.16899928  0.57862335  0.19366691
   0.16899928  0.57862335  0.69366693
   0.66899931  0.57862335  0.19366691
   0.66899931  0.57862335  0.69366693
   0.28554618  0.69431567  0.48815128
   0.28554618  0.69431567  0.98815131
   0.78554618  0.69431567  0.48815128
   0.78554618  0.69431567  0.98815131
   0.23718105  0.54450595  0.42093965
   0.23718105  0.54450595  0.92093968
   0.73718107  0.54450595  0.42093965
   0.73718107  0.54450595  0.92093968
   0.35372803  0.66019833  0.21542400
   0.35372803  0.66019833  0.71542400
   0.85372806  0.66019833  0.21542400
   0.85372806  0.66019833  0.71542400
   0.07809017  0.37391907  0.05730328
   0.07809017  0.37391907  0.55730325
   0.57809019  0.37391907  0.05730328
   0.57809019  0.37391907  0.55730325
   0.10372802  0.28490710  0.21542400
   0.10372802  0.28490710  0.71542400
   0.60372800  0.28490710  0.21542400
   0.60372800  0.28490710  0.71542400
   0.28263566  0.27156693  0.23912145
   0.28263566  0.27156693  0.73912144
   0.78263569  0.27156693  0.23912145
   0.78263569  0.27156693  0.73912144
   0.39918256  0.38725924  0.03360581
   0.39918256  0.38725924  0.53360581
   0.89918256  0.38725924  0.03360581
   0.89918256  0.38725924  0.53360581
   0.48718107  0.16921479  0.42093965
   0.48718107  0.16921479  0.92093968
   0.98718107  0.16921479  0.42093965
   0.98718107  0.16921479  0.92093968
   0.01281892  0.83078522  0.07906036
   0.01281892  0.83078522  0.57906038
   0.51281893  0.83078522  0.07906036
   0.51281893  0.83078522  0.57906038
   0.19172655  0.81744504  0.10275781
   0.19172655  0.81744504  0.60275781
   0.69172656  0.81744504  0.10275781
   0.69172656  0.81744504  0.60275781
   0.30827346  0.18255496  0.39724219
   0.30827346  0.18255496  0.89724219
   0.80827344  0.18255496  0.39724219
   0.80827344  0.18255496  0.89724219
   0.39627197  0.71509290  0.28457600
   0.39627197  0.71509290  0.78457600
   0.89627194  0.71509290  0.28457600
   0.89627194  0.71509290  0.78457600
   0.42190984  0.62608093  0.44269672
   0.42190984  0.62608093  0.94269669
   0.92190981  0.62608093  0.44269672
   0.92190981  0.62608093  0.94269669
   0.10081746  0.61274076  0.46639419
   0.10081746  0.61274076  0.96639419
   0.60081744  0.61274076  0.46639419
   0.60081744  0.61274076  0.96639419
   0.21736439  0.72843307  0.26087853
   0.21736439  0.72843307  0.76087856
   0.71736437  0.72843307  0.26087853
   0.71736437  0.72843307  0.76087856
   0.00990835  0.40803647  0.33003056
   0.00990835  0.40803647  0.83003056
   0.50990838  0.40803647  0.33003056
   0.50990838  0.40803647  0.83003056
   0.21445383  0.30568433  0.01184872
   0.21445383  0.30568433  0.51184875
   0.71445382  0.30568433  0.01184872
   0.71445382  0.30568433  0.51184875
   0.33100074  0.42137662  0.30633309
   0.33100074  0.42137662  0.80633307
   0.83100074  0.42137662  0.30633309
   0.83100074  0.42137662  0.80633307
   0.12354474  0.85156244  0.37548509
   0.12354474  0.85156244  0.87548506
   0.62354475  0.85156244  0.37548509
   0.62354475  0.85156244  0.87548506
   0.24009165  0.21667235  0.16996945
   0.24009165  0.21667235  0.66996944
   0.74009168  0.21667235  0.16996945
   0.74009168  0.21667235  0.66996944
   0.03263565  0.64685816  0.23912145
   0.03263565  0.64685816  0.73912144
   0.53263563  0.64685816  0.23912145
   0.53263563  0.64685816  0.73912144
   0.14918256  0.76255047  0.03360581
   0.14918256  0.76255047  0.53360581
   0.64918256  0.76255047  0.03360581
   0.64918256  0.76255047  0.53360581
   0.12645529  0.52372879  0.12451491
   0.12645529  0.52372879  0.62451494
   0.62645531  0.52372879  0.12451491
   0.62645531  0.52372879  0.62451494
   0.30536291  0.51038861  0.14821236
   0.30536291  0.51038861  0.64821237
   0.80536294  0.51038861  0.14821236
   0.80536294  0.51038861  0.64821237
   0.37354469  0.47627121  0.37548509
   0.37354469  0.47627121  0.87548506
   0.87354469  0.47627121  0.37548509
   0.87354469  0.47627121  0.87548506
   0.05827347  0.55784619  0.39724219
   0.05827347  0.55784619  0.89724219
   0.55827349  0.55784619  0.39724219
   0.55827349  0.55784619  0.89724219
   0.26281893  0.45549402  0.07906036
   0.26281893  0.45549402  0.57906038
   0.76281893  0.45549402  0.07906036
   0.76281893  0.45549402  0.57906038
   0.44172657  0.44215384  0.10275781
   0.44172657  0.44215384  0.60275781
   0.94172656  0.44215384  0.10275781
   0.94172656  0.44215384  0.60275781
   0.19463711  0.48961139  0.35178763
   0.19463711  0.48961139  0.85178763
   0.69463712  0.48961139  0.35178763
   0.69463712  0.48961139  0.85178763
 
 position of ions in cartesian coordinates  (Angst):
   6.93153385 15.94305433  1.79264287
   8.13276955 15.94305433  6.72241053
  14.07572698 15.94305433  1.79264287
  15.27696268 15.94305433  6.72241053
   3.14677821 11.83940914  3.58528564
   4.34801391 11.83940914  8.51505330
  10.29097048 11.83940914  3.58528564
  11.49220618 11.83940914  8.51505330
   3.46576646 10.47152741  0.89632158
   4.66700219 10.47152741  5.82608935
  10.60995902 10.47152741  0.89632158
  11.81119474 10.47152741  5.82608935
   5.30497985  7.73576355  0.44816074
   6.50621558  7.73576355  5.37792851
  12.44917255  7.73576355  0.44816074
  13.65040827  7.73576355  5.37792851
   1.52022421 33.72551804  2.24080351
   2.72145996 33.72551804  7.17057137
   8.66441691 33.72551804  2.24080351
   9.86565265 33.72551804  7.17057137
   3.04044830 32.35763550  4.48160712
   4.24168408 32.35763550  9.41137508
  10.18464129 32.35763550  4.48160712
  11.38587706 32.35763550  9.41137508
   4.87966169 29.62187284  4.03344628
   6.08089732 29.62187284  8.96321365
  12.02385396 29.62187284  4.03344628
  13.22508959 29.62187284  8.96321365
   7.03786305 25.51822725  0.89632138
   8.23909882 25.51822725  5.82608935
  14.18205617 25.51822725  0.89632138
  15.38329194 25.51822725  5.82608935
   1.41389447 24.15034472  3.13712509
   2.61513024 24.15034472  8.06689305
   8.55808688 24.15034472  3.13712509
   9.75932265 24.15034472  8.06689305
   6.61254494 17.31093566  4.48160712
   7.81378071 17.31093566  9.41137508
  13.75673763 17.31093566  4.48160712
  14.95797340 17.31093566  9.41137508
   1.62655372 13.20729047  1.34448213
   2.82778939 13.20729047  6.27424969
   8.77074612 13.20729047  1.34448213
   9.97198180 13.20729047  6.27424969
   4.98599089  9.10364488  3.13712480
   6.18722659  9.10364488  8.06689246
  12.13018315  9.10364488  3.13712480
  13.33141885  9.10364488  8.06689246
   3.35943722 30.98975297  1.79264287
   4.56067292 30.98975297  6.72241053
  10.50362977 30.98975297  1.79264287
  11.70486547 30.98975297  6.72241053
   6.71887456 26.88610738  3.58528564
   7.92011026 26.88610738  8.51505330
  13.86306683 26.88610738  3.58528564
  15.06430253 26.88610738  8.51505330
   5.09232054 18.67881820  2.24080341
   6.29355631 18.67881820  7.17057137
  12.23651323 18.67881820  2.24080341
  13.43774900 18.67881820  7.17057137
   1.30756506 14.57517180  4.03344628
   2.50880069 14.57517180  8.96321365
   8.45175761 14.57517180  4.03344628
   9.65299324 14.57517180  8.96321365
   6.82520421  6.36788182  2.68896425
   8.02643984  6.36788182  7.61873162
  13.96939690  6.36788182  2.68896425
  15.17063253  6.36788182  7.61873162
   5.19865021 28.25399031  1.34448213
   6.39988588 28.25399031  6.27424969
  12.34284333 28.25399031  1.34448213
  13.54407901 28.25399031  6.27424969
   1.73288322 22.78246218  0.44816074
   2.93411894 22.78246218  5.37792851
   8.87707620 22.78246218  0.44816074
  10.07831192 22.78246218  5.37792851
   3.25310743 21.41458206  2.68896425
   4.45434306 21.41458206  7.61873162
  10.39729970 21.41458206  2.68896425
  11.59853533 21.41458206  7.61873162
   3.57209620 20.04669953  0.00000000
   4.77333190 20.04669953  4.92976766
  10.71628904 20.04669953  0.00000000
  11.91752474 20.04669953  4.92976766
   2.77367627 13.62380516  2.80578713
   3.97491197 13.62380516  7.73555479
   9.91786910 13.62380516  2.80578713
  11.11910480 13.62380516  7.73555479
   3.51987997 10.05501272  4.36478395
   4.72111560 10.05501272  9.29455132
  10.66407252 10.05501272  4.36478395
  11.86530815 10.05501272  9.29455132
   6.13311392  9.52015996  4.59842999
   7.33434962  9.52015996  9.52819766
  13.27730618  9.52015996  4.59842999
  14.47854188  9.52015996  9.52819766
   7.30463544 14.15865792  2.57214108
   8.50587122 14.15865792  7.50190904
  14.44882814 14.15865792  2.57214108
  15.65006391 14.15865792  7.50190904
   6.45210214  8.15227783  1.90946584
   7.65333787  8.15227783  6.83923360
  13.59629484  8.15227783  1.90946584
  14.79753056  8.15227783  6.83923360
   1.68066744 12.79077659  4.81294479
   2.88190321 12.79077659  9.74271275
   8.82485970 12.79077659  4.81294479
  10.02609548 12.79077659  9.74271275
   1.14712243  5.41651437  1.46130510
   2.34835813  5.41651437  6.39107276
   8.29131484  5.41651437  1.46130510
   9.49255054  5.41651437  6.39107276
   1.89332628 31.94112042  3.02030192
   3.09456193 31.94112042  7.95006939
   9.03751897 31.94112042  3.02030192
  10.23875462 31.94112042  7.95006939
   4.50656001 31.40626766  3.25394767
   5.70779578 31.40626766  8.18371563
  11.65075270 31.40626766  3.25394767
  12.85198848 31.40626766  8.18371563
   5.67808163  5.95136673  1.22765915
   6.87931740  5.95136673  6.15742712
  12.82227476  5.95136673  1.22765915
  14.02351053  5.95136673  6.15742712
   4.82554816 30.03838753  0.56498381
   6.02678391 30.03838753  5.49475167
  11.96974129 30.03838753  0.56498381
  13.17097704 30.03838753  5.49475167
   7.19830625 34.67688588  3.46846257
   8.39954195 34.67688588  8.39823023
  14.34249894 34.67688588  3.46846257
  15.54373464 34.67688588  8.39823023
   6.66476141 27.30262246  0.11682297
   7.86599716 27.30262246  5.04659083
  13.80895411 27.30262246  0.11682297
  15.01018985 27.30262246  5.04659083
   7.41096511 23.73383003  1.67581980
   8.61220079 23.73383003  6.60558736
  14.55515824 23.73383003  1.67581980
  15.75639391 23.73383003  6.60558736
   2.88000606 23.19897687  1.90946574
   4.08124180 23.19897687  6.83923360
  10.02419918 23.19897687  1.90946574
  11.22543493 23.19897687  6.83923360
   5.25276336 27.83747522  4.81294479
   6.45399913 27.83747522  9.74271275
  12.39695605 27.83747522  4.81294479
  13.59819182 27.83747522  9.74271275
   4.40022972 21.83109434  4.15026935
   5.60146549 21.83109434  9.08003731
  11.54442270 21.83109434  4.15026935
  12.74565847 21.83109434  9.08003731
   5.57175241 26.46959510  2.12398054
   6.77298811 26.46959510  7.05374820
  12.71594554 26.46959510  2.12398054
  13.91718124 26.46959510  7.05374820
   1.25345194 14.99168649  0.56498371
   2.45468756 14.99168649  5.49475108
   8.39764492 14.99168649  0.56498371
   9.59888054 14.99168649  5.49475108
   1.99965592 11.42289405  2.12398054
   3.20089162 11.42289405  7.05374820
   9.14384833 11.42289405  2.12398054
  10.34508403 11.42289405  7.05374820
   4.61288968 10.88804129  2.35762638
   5.81412536 10.88804129  7.28739395
  11.75708280 10.88804129  2.35762638
  12.95831848 10.88804129  7.28739395
   5.78441126 15.52653925  0.33133767
   6.98564696 15.52653925  5.26110534
  12.92860395 15.52653925  0.33133767
  14.12983965 15.52653925  5.26110534
   7.97232635  6.78439610  4.15026935
   9.17356213  6.78439610  9.08003731
  15.11651905  6.78439610  4.15026935
  16.31775482  6.78439610  9.08003731
   0.37310192 33.30900335  0.77949841
   1.57433767 33.30900335  5.70926627
   7.51729476 33.30900335  0.77949841
   8.71853051 33.30900335  5.70926627
   2.98633554 32.77415019  1.01314426
   4.18757124 32.77415019  5.94291192
  10.13052837 32.77415019  1.01314426
  11.33176407 32.77415019  5.94291192
   5.35909300  7.31924886  3.91662341
   6.56032870  7.31924886  8.84639107
  12.50328541  7.31924886  3.91662341
  13.70452111  7.31924886  8.84639107
   6.34577233 28.67050500  2.80578713
   7.54700803 28.67050500  7.73555479
  13.48996459 28.67050500  2.80578713
  14.69120029 28.67050500  7.73555479
   7.09197660 25.10171256  4.36478395
   8.29321223 25.10171256  9.29455132
  14.23616887 25.10171256  4.36478395
  15.43740450 25.10171256  9.29455132
   2.56101743 24.56685980  4.59842999
   3.76225313 24.56685980  9.52819766
   9.70520983 24.56685980  4.59842999
  10.90644553 24.56685980  9.52819766
   3.73253938 29.20535776  2.57214108
   4.93377515 29.20535776  7.50190904
  10.87673179 29.20535776  2.57214108
  12.07796756 29.20535776  7.50190904
   0.93446330 16.35956902  3.25394797
   2.13569900 16.35956902  8.18371563
   8.07865643 16.35956902  3.25394797
   9.27989213 16.35956902  8.18371563
   3.09266518 12.25592383  0.11682287
   4.29390095 12.25592383  5.04659083
  10.23685773 12.25592383  0.11682287
  11.43809351 12.25592383  5.04659083
   5.46542263 16.89442098  3.02030192
   6.66665828 16.89442098  7.95006939
  12.60961532 16.89442098  3.02030192
  13.81085097 16.89442098  7.95006939
   2.66734705 34.14203272  3.70210851
   3.86858268 34.14203272  8.63187588
   9.81153989 34.14203272  3.70210851
  11.01277551 34.14203272  8.63187588
   3.83886877  8.68713099  1.67581980
   5.04010444  8.68713099  6.60558736
  10.98306189  8.68713099  1.67581980
  12.18429757  8.68713099  6.60558736
   1.04079319 25.93474234  2.35762638
   2.24202887 25.93474234  7.28739395
   8.18498560 25.93474234  2.35762638
   9.38622127 25.93474234  7.28739395
   2.21231491 30.57324029  0.33133767
   3.41355061 30.57324029  5.26110534
   9.35650760 30.57324029  0.33133767
  10.55774330 30.57324029  5.26110534
   2.10598543 20.99806737  1.22765915
   3.30722120 20.99806737  6.15742712
   9.25017841 20.99806737  1.22765915
  10.45141418 20.99806737  6.15742712
   4.71921890 20.46321421  1.46130500
   5.92045462 20.46321421  6.39107276
  11.86341202 20.46321421  1.46130500
  13.06464775 20.46321421  6.39107276
   6.23944268 19.09533168  3.70210851
   7.44067831 19.09533168  8.63187588
  13.38363538 19.09533168  3.70210851
  14.58487100 19.09533168  8.63187588
   1.78699680 22.36594990  3.91662341
   2.98823250 22.36594990  8.84639107
   8.93118978 22.36594990  3.91662341
  10.13242548 22.36594990  8.84639107
   3.94519841 18.26230351  0.77949841
   5.14643416 18.26230351  5.70926627
  11.08939111 18.26230351  0.77949841
  12.29062686 18.26230351  5.70926627
   6.55843217 17.72745035  1.01314426
   7.75966787 17.72745035  5.94291192
  13.70262472 17.72745035  1.01314426
  14.90386042 17.72745035  5.94291192
   3.62620976 19.63018484  3.46846257
   4.82744546 19.63018484  8.39823023
  10.77040260 19.63018484  3.46846257
  11.97163830 19.63018484  8.39823023
 


--------------------------------------------------------------------------------------------------------


 k-point  1 :   0.0000 0.0000 0.0000  plane waves:   90397

 maximum and minimum number of plane-waves per node :      9042     9037

 maximum number of plane-waves:     90397
 maximum index in each direction: 
   IXMAX=   22   IYMAX=   62   IZMAX=   15
   IXMIN=  -22   IYMIN=  -62   IZMIN=  -15

 WARNING: aliasing errors must be expected set NGX to  90 to avoid them
 WARNING: aliasing errors must be expected set NGY to 250 to avoid them
 WARNING: aliasing errors must be expected set NGZ to  62 to avoid them
 aliasing errors are usually negligible using standard VASP settings
 and one can safely disregard these warnings

 parallel 3D FFT for wavefunctions:
    minimum data exchange during FFTs selected (reduces bandwidth)
 parallel 3D FFT for charge:
    minimum data exchange during FFTs selected (reduces bandwidth)


 total amount of memory used by VASP on root node   123750. kBytes
========================================================================

   base      :      30000. kBytes
   nonl-proj :      40209. kBytes
   fftplans  :       4457. kBytes
   grid      :      11200. kBytes
   one-center:        808. kBytes
   wavefun   :      37076. kBytes
 
 Broyden mixing: mesh for mixing (old mesh)
   NGX = 45   NGY =125   NGZ = 31
  (NGX  =140   NGY  =384   NGZ  = 96)
  gives a total of 174375 points

 initial charge density was supplied:
 charge density of overlapping atoms calculated
 number of electron    1644.0000000 magnetization      -0.0000000
 keeping initial charge density in first step


--------------------------------------------------------------------------------------------------------


 Maximum index for augmentation-charges          296 (set IRDMAX)


--------------------------------------------------------------------------------------------------------


 First call to EWALD:  gamma=   0.100
 Maximum number of real-space cells 3x 1x 5
 Maximum number of reciprocal cells 2x 6x 2

 FEWALD executed in parallel
    FEWALD:  cpu time    0.14: real time    0.14


----------------------------------------- Iteration    1(   1)  ---------------------------------------


    POTLOK:  cpu time    0.25: real time    0.26
    SETDIJ:  cpu time    0.03: real time    0.03
     EDDAV:  cpu time   60.89: real time   61.05
       DOS:  cpu time    0.00: real time    0.00
    --------------------------------------------
      LOOP:  cpu time   61.18: real time   61.42

 eigenvalue-minimisations  :  4008
 total energy-change (2. order) : 0.1946478E+05  (-0.5676289E+05)
 number of electron    1644.0000000 magnetization      -0.0000000
 augmentation part     1644.0000000 magnetization      -0.0000000

 Free energy of the ion-electron system (eV)
  ---------------------------------------------------
  alpha Z        PSCENC =      2857.12088276
  Ewald energy   TEWEN  =    346137.41695296
  -1/2 Hartree   DENC   =   -452064.14278989
  -exchange  EXHF       =         0.00000000
  -V(xc)+E(xc)   XCENC  =      3860.01371543
  PAW double counting   =     78685.18620337   -77570.50077295
  entropy T*S    EENTRO =         0.01719604
  eigenvalues    EBANDS =      6463.61584601
  atomic energy  EATOM  =    111096.05346913
  ---------------------------------------------------
  free energy    TOTEN  =     19464.78070286 eV

  energy without entropy =    19464.76350682  energy(sigma->0) =    19464.77497085


--------------------------------------------------------------------------------------------------------




----------------------------------------- Iteration    1(   2)  ---------------------------------------


     EDDAV:  cpu time   60.24: real time   60.26
       DOS:  cpu time    0.00: real time    0.00
    --------------------------------------------
      LOOP:  cpu time   60.33: real time   60.42

 eigenvalue-minimisations  :  4000
 total energy-change (2. order) :-0.1696963E+05  (-0.1643460E+05)
 number of electron    1644.0000000 magnetization      -0.0000000
 augmentation part     1644.0000000 magnetization      -0.0000000

 Free energy of the ion-electron system (eV)
  ---------------------------------------------------
  alpha Z        PSCENC =      2857.12088276
  Ewald energy   TEWEN  =    346137.41695296
  -1/2 Hartree   DENC   =   -452064.14278989
  -exchange  EXHF       =         0.00000000
  -V(xc)+E(xc)   XCENC  =      3860.01371543
  PAW double counting   =     78685.18620337   -77570.50077295
  entropy T*S    EENTRO =        -0.02108110
  eigenvalues    EBANDS =    -10505.97902740
  atomic energy  EATOM  =    111096.05346913
  ---------------------------------------------------
  free energy    TOTEN  =      2495.14755231 eV

  energy without entropy =     2495.16863341  energy(sigma->0) =     2495.15457934


--------------------------------------------------------------------------------------------------------




----------------------------------------- Iteration    1(   3)  ---------------------------------------


     EDDAV:  cpu time   81.49: real time   81.52
       DOS:  cpu time    0.00: real time    0.00
    --------------------------------------------
      LOOP:  cpu time   81.59: real time  136.15

 eigenvalue-minimisations  :  5824
 total energy-change (2. order) :-0.4436375E+04  (-0.4246983E+04)
 number of electron    1644.0000000 magnetization      -0.0000000
 augmentation part     1644.0000000 magnetization      -0.0000000

 Free energy of the ion-electron system (eV)
  ---------------------------------------------------
  alpha Z        PSCENC =      2857.12088276
  Ewald energy   TEWEN  =    346137.41695296
  -1/2 Hartree   DENC   =   -452064.14278989
  -exchange  EXHF       =         0.00000000
  -V(xc)+E(xc)   XCENC  =      3860.01371543
  PAW double counting   =     78685.18620337   -77570.50077295
  entropy T*S    EENTRO =         0.04730913
  eigenvalues    EBANDS =    -14942.42227962
  atomic energy  EATOM  =    111096.05346913
  ---------------------------------------------------
  free energy    TOTEN  =     -1941.22730967 eV

  energy without entropy =    -1941.27461881  energy(sigma->0) =    -1941.24307938


--------------------------------------------------------------------------------------------------------




----------------------------------------- Iteration    1(   4)  ---------------------------------------


     EDDAV:  cpu time   86.59: real time   86.62
       DOS:  cpu time    0.00: real time    0.00
    --------------------------------------------
      LOOP:  cpu time   86.68: real time   86.90

 eigenvalue-minimisations  :  6176
 total energy-change (2. order) :-0.4788282E+03  (-0.4667079E+03)
 number of electron    1644.0000000 magnetization      -0.0000000
 augmentation part     1644.0000000 magnetization      -0.0000000

 Free energy of the ion-electron system (eV)
  ---------------------------------------------------
  alpha Z        PSCENC =      2857.12088276
  Ewald energy   TEWEN  =    346137.41695296
  -1/2 Hartree   DENC   =   -452064.14278989
  -exchange  EXHF       =         0.00000000
  -V(xc)+E(xc)   XCENC  =      3860.01371543
  PAW double counting   =     78685.18620337   -77570.50077295
  entropy T*S    EENTRO =         0.28299759
  eigenvalues    EBANDS =    -15421.48618108
  atomic energy  EATOM  =    111096.05346913
  ---------------------------------------------------
  free energy    TOTEN  =     -2420.05552268 eV

  energy without entropy =    -2420.33852027  energy(sigma->0) =    -2420.14985521


--------------------------------------------------------------------------------------------------------




----------------------------------------- Iteration    1(   5)  ---------------------------------------


     EDDAV:  cpu time   85.78: real time   85.81
       DOS:  cpu time    0.00: real time    0.00
    CHARGE:  cpu time    0.80: real time    0.80
    MIXING:  cpu time    0.00: real time    0.01
    --------------------------------------------
      LOOP:  cpu time   86.68: real time   86.79

 eigenvalue-minimisations  :  6080
 total energy-change (2. order) :-0.1493892E+02  (-0.1471663E+02)
 number of electron    1644.0000367 magnetization      -0.0040105
 augmentation part      453.0368890 magnetization       0.0625123

 Broyden mixing:
  rms(total) = 0.18877E+02    rms(broyden)= 0.18857E+02
  rms(prec ) = 0.19403E+02
  weight for this iteration     100.00

 Free energy of the ion-electron system (eV)
  ---------------------------------------------------
  alpha Z        PSCENC =      2857.12088276
  Ewald energy   TEWEN  =    346137.41695296
  -1/2 Hartree   DENC   =   -452064.14278989
  -exchange  EXHF       =         0.00000000
  -V(xc)+E(xc)   XCENC  =      3860.01371543
  PAW double counting   =     78685.18620337   -77570.50077295
  entropy T*S    EENTRO =         0.27915616
  eigenvalues    EBANDS =    -15436.42126210
  atomic energy  EATOM  =    111096.05346913
  ---------------------------------------------------
  free energy    TOTEN  =     -2434.99444513 eV

  energy without entropy =    -2435.27360129  energy(sigma->0) =    -2435.08749719


--------------------------------------------------------------------------------------------------------




----------------------------------------- Iteration    1(   6)  ---------------------------------------


    POTLOK:  cpu time    0.26: real time    0.26
    SETDIJ:  cpu time    0.03: real time    0.03
     EDDAV:  cpu time   93.94: real time   93.97
       DOS:  cpu time    0.00: real time    0.00
    CHARGE:  cpu time    0.81: real time    0.81
    MIXING:  cpu time    0.01: real time    0.03
    --------------------------------------------
      LOOP:  cpu time   95.05: real time   95.27

 eigenvalue-minimisations  :  6704
 total energy-change (2. order) :-0.3042192E+03  (-0.1261396E+04)
 number of electron    1643.9999231 magnetization      -0.0635471
 augmentation part      613.8259872 magnetization       5.0223161

 Broyden mixing:
  rms(total) = 0.36292E+02    rms(broyden)= 0.36283E+02
  rms(prec ) = 0.38875E+02
  weight for this iteration     100.00

 eigenvalues of (default mixing * dielectric matrix)
  average eigenvalue GAMMA=   0.3137
  0.3137

 Free energy of the ion-electron system (eV)
  ---------------------------------------------------
  alpha Z        PSCENC =      2857.12088276
  Ewald energy   TEWEN  =    346137.41695296
  -1/2 Hartree   DENC   =   -451931.90391511
  -exchange  EXHF       =         0.00000000
  -V(xc)+E(xc)   XCENC  =      4078.77880330
  PAW double counting   =     84168.00093608   -82959.73899144
  entropy T*S    EENTRO =         0.00735527
  eigenvalues    EBANDS =    -16184.94913048
  atomic energy  EATOM  =    111096.05346913
  ---------------------------------------------------
  free energy    TOTEN  =     -2739.21363753 eV

  energy without entropy =    -2739.22099280  energy(sigma->0) =    -2739.21608929


--------------------------------------------------------------------------------------------------------




----------------------------------------- Iteration    1(   7)  ---------------------------------------


    POTLOK:  cpu time    0.26: real time    0.26
    SETDIJ:  cpu time    0.03: real time    0.03
     EDDAV:  cpu time  100.21: real time  100.25
       DOS:  cpu time    0.00: real time    0.00
    CHARGE:  cpu time    0.81: real time    0.81
    MIXING:  cpu time    0.01: real time    0.01
    --------------------------------------------
      LOOP:  cpu time  101.33: real time  101.55

 eigenvalue-minimisations  :  7224
 total energy-change (2. order) :-0.9376927E+03  (-0.2008680E+04)
 number of electron    1643.9999521 magnetization      -0.0836814
 augmentation part      520.9178370 magnetization       4.1231576

 Broyden mixing:
  rms(total) = 0.31525E+02    rms(broyden)= 0.31518E+02
  rms(prec ) = 0.45711E+02
  weight for this iteration     100.00

 eigenvalues of (default mixing * dielectric matrix)
  average eigenvalue GAMMA=   0.1827
  0.2997  0.0658

 Free energy of the ion-electron system (eV)
  ---------------------------------------------------
  alpha Z        PSCENC =      2857.12088276
  Ewald energy   TEWEN  =    346137.41695296
  -1/2 Hartree   DENC   =   -456659.49107310
  -exchange  EXHF       =         0.00000000
  -V(xc)+E(xc)   XCENC  =      3932.95617512
  PAW double counting   =     84319.03957028   -83413.44674651
  entropy T*S    EENTRO =        -0.01571311
  eigenvalues    EBANDS =    -11946.53986242
  atomic energy  EATOM  =    111096.05346913
  ---------------------------------------------------
  free energy    TOTEN  =     -3676.90634490 eV

  energy without entropy =    -3676.89063179  energy(sigma->0) =    -3676.90110720


--------------------------------------------------------------------------------------------------------




----------------------------------------- Iteration    1(   8)  ---------------------------------------


    POTLOK:  cpu time    0.26: real time    0.26
    SETDIJ:  cpu time    0.03: real time    0.03
     EDDAV:  cpu time   94.83: real time   94.86
       DOS:  cpu time    0.00: real time    0.00
    CHARGE:  cpu time    0.81: real time    0.81
    MIXING:  cpu time    0.01: real time    0.01
    --------------------------------------------
      LOOP:  cpu time   95.94: real time   96.05

 eigenvalue-minimisations  :  6776
 total energy-change (2. order) : 0.2066625E+04  (-0.6233103E+03)
 number of electron    1644.0000190 magnetization       0.0861796
 augmentation part      459.0878748 magnetization      -5.2596722

 Broyden mixing:
  rms(total) = 0.94715E+01    rms(broyden)= 0.94443E+01
  rms(prec ) = 0.10237E+02
  weight for this iteration     100.00

 eigenvalues of (default mixing * dielectric matrix)
  average eigenvalue GAMMA=   0.2969
  0.5672  0.2376  0.0861

 Free energy of the ion-electron system (eV)
  ---------------------------------------------------
  alpha Z        PSCENC =      2857.12088276
  Ewald energy   TEWEN  =    346137.41695296
  -1/2 Hartree   DENC   =   -453785.36225818
  -exchange  EXHF       =         0.00000000
  -V(xc)+E(xc)   XCENC  =      3924.54516743
  PAW double counting   =     84352.43269943   -83481.09175708
  entropy T*S    EENTRO =        -0.06433898
  eigenvalues    EBANDS =    -12711.33223873
  atomic energy  EATOM  =    111096.05346913
  ---------------------------------------------------
  free energy    TOTEN  =     -1610.28142127 eV

  energy without entropy =    -1610.21708230  energy(sigma->0) =    -1610.25997495


--------------------------------------------------------------------------------------------------------




----------------------------------------- Iteration    1(   9)  ---------------------------------------


    POTLOK:  cpu time    0.26: real time    0.26
    SETDIJ:  cpu time    0.03: real time    0.03
     EDDAV:  cpu time   93.90: real time   93.93
       DOS:  cpu time    0.00: real time    0.00
    CHARGE:  cpu time    0.82: real time    0.82
    MIXING:  cpu time    0.01: real time    0.01
[...]
     10.66407     10.05501      4.36478         0.123028     -1.008427     -0.397587
     11.86531     10.05501      9.29455         0.123028     -1.008427     -0.397587
      6.13311      9.52016      4.59843         0.090481      0.736099      0.347448
      7.33435      9.52016      9.52820         0.090481      0.736099      0.347448
     13.27731      9.52016      4.59843         0.108333      0.735597      0.337170
     14.47854      9.52016      9.52820         0.108333      0.735597      0.337170
      7.30464     14.15866      2.57214         0.174122     -0.976039     -0.291886
      8.50587     14.15866      7.50191         0.174122     -0.976039     -0.291886
     14.44883     14.15866      2.57214         0.076869     -0.884886     -0.247965
     15.65006     14.15866      7.50191         0.076869     -0.884886     -0.247965
      6.45210      8.15228      1.90947        -0.190805      1.203385      0.315265
      7.65334      8.15228      6.83923        -0.190805      1.203385      0.315265
     13.59629      8.15228      1.90947        -0.059438      1.100590      0.480206
     14.79753      8.15228      6.83923        -0.059438      1.100590      0.480206
      1.68067     12.79078      4.81294         0.041445     -0.793222     -0.328766
      2.88190     12.79078      9.74271         0.041445     -0.793222     -0.328766
      8.82486     12.79078      4.81294         0.079644     -0.931251     -0.309345
     10.02610     12.79078      9.74271         0.079644     -0.931251     -0.309345
      1.14712      5.41651      1.46131        -1.388470      0.851223      1.452339
      2.34836      5.41651      6.39107        -1.388470      0.851223      1.452339
      8.29131      5.41651      1.46131        -0.974379      0.589416      0.989958
      9.49255      5.41651      6.39107        -0.974379      0.589416      0.989958
      1.90328     31.86526      3.00525         0.133304     -0.537511     -0.260073
      3.10452     31.86526      7.93502         0.133304     -0.537511     -0.260073
      9.05171     31.86610      3.00527         0.253952     -0.801723     -0.050450
     10.25295     31.86610      7.93504         0.253952     -0.801723     -0.050450
      4.50890     31.44666      3.26809        -0.021502      0.233155      0.030709
      5.71014     31.44666      8.19786        -0.021502      0.233155      0.030709
     11.65551     31.44555      3.26549        -0.034486      0.279885      0.065722
     12.85674     31.44555      8.19526        -0.034486      0.279885      0.065722
      5.67808      5.95137      1.22766        -0.113671      0.560816     -0.120521
      6.87932      5.95137      6.15743        -0.113671      0.560816     -0.120521
     12.82227      5.95137      1.22766        -0.282360      0.604948     -0.167647
     14.02351      5.95137      6.15743        -0.282360      0.604948     -0.167647
      4.81794     30.09812      0.58965        -0.245293      0.539547      0.162192
      6.01918     30.09812      5.51942        -0.245293      0.539547      0.162192
     11.96188     30.09896      0.58988        -0.288261      0.566689      0.154274
     13.16312     30.09896      5.51965        -0.288261      0.566689      0.154274
      7.19570     34.67615      3.46787         0.983412     -0.665763     -0.999326
      8.39694     34.67615      8.39763         0.983412     -0.665763     -0.999326
     14.45981     34.60807      3.34638         1.065956     -0.655657     -1.102417
     15.66105     34.60807      8.27615         1.065956     -0.655657     -1.102417
      6.66476     27.30262      0.11682        -0.151907      0.930789      0.261537
      7.86600     27.30262      5.04659        -0.151907      0.930789      0.261537
     13.80895     27.30262      0.11682        -0.189522      0.958798      0.268460
     15.01019     27.30262      5.04659        -0.189522      0.958798      0.268460
      7.41097     23.73383      1.67582         0.075701     -0.921285     -0.300783
      8.61220     23.73383      6.60559         0.075701     -0.921285     -0.300783
     14.55516     23.73383      1.67582         0.062443     -0.877268     -0.296253
     15.75639     23.73383      6.60559         0.062443     -0.877268     -0.296253
      2.88001     23.19898      1.90947        -0.097956      0.977442      0.274431
      4.08124     23.19898      6.83923        -0.097956      0.977442      0.274431
     10.02420     23.19898      1.90947        -0.076723      0.940747      0.258881
     11.22543     23.19898      6.83923        -0.076723      0.940747      0.258881
      5.25276     27.83748      4.81294         0.164181     -0.733708     -0.327445
      6.45400     27.83748      9.74271         0.164181     -0.733708     -0.327445
     12.39696     27.83748      4.81294         0.156752     -0.686570     -0.337277
     13.59819     27.83748      9.74271         0.156752     -0.686570     -0.337277
      4.40023     21.83109      4.15027        -0.140351      0.991099      0.320956
      5.60147     21.83109      9.08004        -0.140351      0.991099      0.320956
     11.54442     21.83109      4.15027        -0.123370      0.966060      0.312814
     12.74566     21.83109      9.08004        -0.123370      0.966060      0.312814
      5.57175     26.46960      2.12398         0.131126     -0.787329     -0.260036
      6.77299     26.46960      7.05375         0.131126     -0.787329     -0.260036
     12.71595     26.46960      2.12398         0.119895     -0.740162     -0.257640
     13.91718     26.46960      7.05375         0.119895     -0.740162     -0.257640
      1.25345     14.99169      0.56498        -0.045899      0.844758      0.241253
      2.45469     14.99169      5.49475        -0.045899      0.844758      0.241253
      8.39764     14.99169      0.56498        -0.082869      0.923346      0.304304
      9.59888     14.99169      5.49475        -0.082869      0.923346      0.304304
      1.99966     11.42289      2.12398         0.121801     -0.950287     -0.322626
      3.20089     11.42289      7.05375         0.121801     -0.950287     -0.322626
      9.14385     11.42289      2.12398         0.170599     -0.955498     -0.262997
     10.34508     11.42289      7.05375         0.170599     -0.955498     -0.262997
      4.61289     10.88804      2.35763        -0.051691      0.805269      0.299131
      5.81413     10.88804      7.28739        -0.051691      0.805269      0.299131
     11.75708     10.88804      2.35763        -0.089682      0.873861      0.363514
     12.95832     10.88804      7.28739        -0.089682      0.873861      0.363514
      5.78441     15.52654      0.33134         0.069613     -0.899105     -0.295902
      6.98565     15.52654      5.26111         0.069613     -0.899105     -0.295902
     12.92860     15.52654      0.33134         0.166771     -1.055933     -0.465167
     14.12984     15.52654      5.26111         0.166771     -1.055933     -0.465167
      7.97233      6.78440      4.15027        -1.481778      0.487483      0.497757
      9.17356      6.78440      9.08004        -1.481778      0.487483      0.497757
     15.11652      6.78440      4.15027        -1.423186      0.560151      0.586230
     16.31775      6.78440      9.08004        -1.423186      0.560151      0.586230
      0.46014     33.29193      0.77359         0.617552     -0.403126     -0.588838
      1.66137     33.29193      5.70335         0.617552     -0.403126     -0.588838
      7.59827     33.29476      0.77076         0.861384     -0.346223     -0.251869
      8.79950     33.29476      5.70053         0.861384     -0.346223     -0.251869
      2.98636     32.82337      1.02587         0.008406      0.080666      0.249347
      4.18760     32.82337      5.95563         0.008406      0.080666      0.249347
     10.13297     32.81885      1.02689        -0.007294      0.269942      0.261954
     11.33421     32.81885      5.95666        -0.007294      0.269942      0.261954
      5.35909      7.31925      3.91662        -0.085429     -0.779891     -0.350235
      6.56033      7.31925      8.84639        -0.085429     -0.779891     -0.350235
     12.50329      7.31925      3.91662        -0.132987     -0.752078     -0.262185
     13.70452      7.31925      8.84639        -0.132987     -0.752078     -0.262185
      6.33733     28.72767      2.82807        -0.218577      0.447835      0.143214
      7.53857     28.72767      7.75784        -0.218577      0.447835      0.143214
     13.48157     28.72727      2.82780        -0.250998      0.468809      0.153851
     14.68280     28.72727      7.75757        -0.250998      0.468809      0.153851
      7.09198     25.10171      4.36478         0.167014     -0.991655     -0.305075
      8.29321     25.10171      9.29455         0.167014     -0.991655     -0.305075
     14.23617     25.10171      4.36478         0.148931     -0.948573     -0.308172
     15.43740     25.10171      9.29455         0.148931     -0.948573     -0.308172
      2.56102     24.56686      4.59843        -0.200713      0.991360      0.295825
      3.76225     24.56686      9.52820        -0.200713      0.991360      0.295825
      9.70521     24.56686      4.59843        -0.168237      0.961398      0.290706
     10.90645     24.56686      9.52820        -0.168237      0.961398      0.290706
      3.72757     29.16564      2.55325         0.081028     -0.331213     -0.093467
      4.92881     29.16564      7.48301         0.081028     -0.331213     -0.093467
     10.87188     29.16665      2.55306         0.033812     -0.265038     -0.116783
     12.07311     29.16665      7.48283         0.033812     -0.265038     -0.116783
      0.93446     16.35957      3.25395        -0.078961      0.844614      0.397673
      2.13570     16.35957      8.18372        -0.078961      0.844614      0.397673
      8.07866     16.35957      3.25395        -0.188928      0.997735      0.292588
      9.27989     16.35957      8.18372        -0.188928      0.997735      0.292588
      3.09267     12.25592      0.11682        -0.091862      0.888646      0.314783
      4.29390     12.25592      5.04659        -0.091862      0.888646      0.314783
     10.23686     12.25592      0.11682        -0.095317      0.926275      0.283625
     11.43809     12.25592      5.04659        -0.095317      0.926275      0.283625
      5.46542     16.89442      3.02030         0.163056     -0.949034     -0.294315
      6.66666     16.89442      7.95007         0.163056     -0.949034     -0.294315
     12.60962     16.89442      3.02030         0.143998     -0.902314     -0.256995
     13.81085     16.89442      7.95007         0.143998     -0.902314     -0.256995
      2.68069     34.12925      3.70804         0.248528     -0.296146      0.307478
      3.88192     34.12925      8.63780         0.248528     -0.296146      0.307478
      9.81905     34.12163      3.70460         0.074241     -0.328833     -0.043450
     11.02028     34.12163      8.63436         0.074241     -0.328833     -0.043450
      3.83887      8.68713      1.67582         0.124906     -0.979147     -0.389239
      5.04010      8.68713      6.60559         0.124906     -0.979147     -0.389239
     10.98306      8.68713      1.67582         0.131982     -0.986211     -0.345875
     12.18430      8.68713      6.60559         0.131982     -0.986211     -0.345875
      1.04079     25.93474      2.35763        -0.093188      0.925373      0.292017
      2.24203     25.93474      7.28739        -0.093188      0.925373      0.292017
      8.18499     25.93474      2.35763        -0.061962      0.892722      0.278145
      9.38622     25.93474      7.28739        -0.061962      0.892722      0.278145
      2.21840     30.51661      0.31278         0.268001     -0.441040     -0.115570
      3.41964     30.51661      5.24255         0.268001     -0.441040     -0.115570
      9.36314     30.51451      0.31412         0.260561     -0.431535     -0.119623
     10.56437     30.51451      5.24389         0.260561     -0.431535     -0.119623
      2.10599     20.99807      1.22766         0.054717     -0.854174     -0.284391
      3.30722     20.99807      6.15743         0.054717     -0.854174     -0.284391
      9.25018     20.99807      1.22766         0.070220     -0.882519     -0.286589
     10.45141     20.99807      6.15743         0.070220     -0.882519     -0.286589
      4.71922     20.46321      1.46130        -0.081150      0.901632      0.291687
      5.92045     20.46321      6.39107        -0.081150      0.901632      0.291687
     11.86341     20.46321      1.46130        -0.073457      0.887970      0.284546
     13.06465     20.46321      6.39107        -0.073457      0.887970      0.284546
      6.23944     19.09533      3.70211        -0.164124      0.959104      0.228314
      7.44068     19.09533      8.63188        -0.164124      0.959104      0.228314
     13.38364     19.09533      3.70211        -0.131513      0.919887      0.238540
     14.58487     19.09533      8.63188        -0.131513      0.919887      0.238540
      1.78700     22.36595      3.91662         0.127212     -0.896596     -0.228456
      2.98823     22.36595      8.84639         0.127212     -0.896596     -0.228456
      8.93119     22.36595      3.91662         0.153274     -0.934934     -0.224931
     10.13243     22.36595      8.84639         0.153274     -0.934934     -0.224931
      3.94520     18.26230      0.77950         0.066456     -0.909942     -0.250896
      5.14643     18.26230      5.70927         0.066456     -0.909942     -0.250896
     11.08939     18.26230      0.77950         0.084986     -0.948692     -0.269206
     12.29063     18.26230      5.70927         0.084986     -0.948692     -0.269206
      6.55843     17.72745      1.01314        -0.086482      0.935694      0.306651
      7.75967     17.72745      5.94291        -0.086482      0.935694      0.306651
     13.70262     17.72745      1.01314        -0.110873      0.962581      0.283805
     14.90386     17.72745      5.94291        -0.110873      0.962581      0.283805
      3.62621     19.63018      3.46846         0.118003     -0.947772     -0.312476
      4.82745     19.63018      8.39823         0.118003     -0.947772     -0.312476
     10.77040     19.63018      3.46846         0.129887     -0.962237     -0.311246
     11.97164     19.63018      8.39823         0.129887     -0.962237     -0.311246
 -----------------------------------------------------------------------------------
    total drift:                               -0.005667     -0.078955      0.012737


--------------------------------------------------------------------------------------------------------



  FREE ENERGIE OF THE ION-ELECTRON SYSTEM (eV)
  ---------------------------------------------------
  free  energy   TOTEN  =     -1740.33563279 eV

  energy  without entropy=    -1740.38474327  energy(sigma->0) =    -1740.35200295
 
 d Force = 0.2914261E+00[ 0.274E+00, 0.309E+00]  d Energy = 0.2987176E+00-0.729E-02
 d Force =-0.7191527E+02[-0.722E+02,-0.716E+02]  d Ewald  =-0.7191366E+02-0.161E-02


--------------------------------------------------------------------------------------------------------


    POTLOK:  cpu time    0.32: real time    0.32


--------------------------------------------------------------------------------------------------------




--------------------------------------------------------------------------------------------------------


    WAVPRE:  cpu time    0.05: real time    0.05
 FEWALD executed in parallel
    FEWALD:  cpu time    0.01: real time    0.01
    ORTHCH:  cpu time    9.16: real time    9.17
     LOOP+:  cpu time 2132.89: real time 2138.01


----------------------------------------- Iteration    4(   1)  ---------------------------------------


    POTLOK:  cpu time    0.27: real time    0.28
    SETDIJ:  cpu time    0.03: real time    0.03
     EDDAV:  cpu time   62.64: real time   62.66
       DOS:  cpu time    0.00: real time    0.00
    CHARGE:  cpu time    0.81: real time    0.82
    MIXING:  cpu time    0.01: real time    0.01
    --------------------------------------------
      LOOP:  cpu time   63.78: real time   63.83

 eigenvalue-minimisations  :  3976
 total energy-change (2. order) :-0.4193552E-01  (-0.5449755E+01)
 number of electron    1644.0000110 magnetization      -2.8064969
 augmentation part      480.6322742 magnetization      -1.5385193

  free energy =  -0.174037750909E+04  energy without entropy=  -0.174044135948E+04


--------------------------------------------------------------------------------------------------------




----------------------------------------- Iteration    4(   2)  ---------------------------------------


    POTLOK:  cpu time    0.27: real time    0.28
    SETDIJ:  cpu time    0.03: real time    0.03
     EDDAV:  cpu time   84.61: real time   84.64
       DOS:  cpu time    0.00: real time    0.00
    CHARGE:  cpu time    0.81: real time    0.81
    MIXING:  cpu time    0.01: real time    0.01
    --------------------------------------------
      LOOP:  cpu time   85.74: real time   85.84

 eigenvalue-minimisations  :  5792
 total energy-change (2. order) :-0.4035100E+00  (-0.3347792E+00)
 number of electron    1644.0000119 magnetization      -2.8121501
 augmentation part      480.6755725 magnetization      -1.0185571

 eigenvalues of (default mixing * dielectric matrix)
  average eigenvalue GAMMA=   0.3996
  0.3996

  free energy =  -0.174078101910E+04  energy without entropy=  -0.174087847145E+04


--------------------------------------------------------------------------------------------------------




----------------------------------------- Iteration    4(   3)  ---------------------------------------


    POTLOK:  cpu time    0.27: real time    0.28
    SETDIJ:  cpu time    0.03: real time    0.03
     EDDAV:  cpu time   96.51: real time   96.78
       DOS:  cpu time    0.00: real time    0.00
    CHARGE:  cpu time    0.81: real time    0.81
    MIXING:  cpu time    0.01: real time    0.01
    --------------------------------------------
      LOOP:  cpu time   97.64: real time   98.01

 eigenvalue-minimisations  :  6352
 total energy-change (2. order) :-0.4320598E+00  (-0.3356844E+00)
 number of electron    1644.0000105 magnetization      -2.8111864
 augmentation part      480.6618839 magnetization      -1.9334878

 eigenvalues of (default mixing * dielectric matrix)
  average eigenvalue GAMMA=   0.3607
  0.6153  0.1061

  free energy =  -0.174121307888E+04  energy without entropy=  -0.174143647906E+04


--------------------------------------------------------------------------------------------------------




----------------------------------------- Iteration    4(   4)  ---------------------------------------


    POTLOK:  cpu time    0.27: real time    0.28
    SETDIJ:  cpu time    0.03: real time    0.03
     EDDAV:  cpu time   94.12: real time   94.15
       DOS:  cpu time    0.00: real time    0.00
    CHARGE:  cpu time    0.80: real time    0.81
    MIXING:  cpu time    0.01: real time    0.01
    --------------------------------------------
      LOOP:  cpu time   95.24: real time   95.35

 eigenvalue-minimisations  :  6568
 total energy-change (2. order) : 0.4724039E+00  (-0.2954221E+00)
 number of electron    1644.0000116 magnetization      -2.8115749
 augmentation part      480.6773157 magnetization      -1.3201853

 eigenvalues of (default mixing * dielectric matrix)
  average eigenvalue GAMMA=   0.3224
  0.6526  0.2227  0.0917

  free energy =  -0.174074067502E+04  energy without entropy=  -0.174080953836E+04


--------------------------------------------------------------------------------------------------------




----------------------------------------- Iteration    4(   5)  ---------------------------------------


    POTLOK:  cpu time    0.27: real time    0.28
    SETDIJ:  cpu time    0.03: real time    0.03
