 vasp.5.3.3 18Dez12 (build May 12 2016 12:04:25) complex                        
  
 executed on             LinuxIFC date 2019.05.18  11:40:28
 running on   32 total cores
 distrk:  each k-point on   32 cores,    1 groups
 distr:  one band on NCORES_PER_BAND=   4 cores,    8 groups


--------------------------------------------------------------------------------------------------------


 INCAR:
 POTCAR:    PAW_PBE Mn 06Sep2000                  
 POTCAR:    PAW_PBE O 08Apr2002                   
 POTCAR:    PAW_PBE Mn 06Sep2000                  
  local pseudopotential read in
  partial core-charges read in
  partial kinetic energy density read in
  atomic valenz-charges read in
  non local Contribution for L=           2  read in
    real space projection operators read in
  non local Contribution for L=           2  read in
    real space projection operators read in
  non local Contribution for L=           0  read in
    real space projection operators read in
  non local Contribution for L=           0  read in
    real space projection operators read in
  non local Contribution for L=           1  read in
    real space projection operators read in
  non local Contribution for L=           1  read in
    real space projection operators read in
    PAW grid and wavefunctions read in
 
   number of l-projection  operators is LMAX  =           6
   number of lm-projection operators is LMMAX =          18
 
 POTCAR:    PAW_PBE O 08Apr2002                   
  local pseudopotential read in
  partial core-charges read in
  partial kinetic energy density read in
  kinetic energy density of atom read in
  atomic valenz-charges read in
  non local Contribution for L=           0  read in
    real space projection operators read in
  non local Contribution for L=           0  read in
    real space projection operators read in
  non local Contribution for L=           1  read in
    real space projection operators read in
  non local Contribution for L=           1  read in
    real space projection operators read in
    PAW grid and wavefunctions read in
 
   number of l-projection  operators is LMAX  =           4
   number of lm-projection operators is LMMAX =           8
 

 ----------------------------------------------------------------------------- 
|                                                                             |
|  ADVICE TO THIS USER RUNNING 'VASP/VAMP'   (HEAR YOUR MASTER'S VOICE ...):  |
|                                                                             |
|      You enforced a specific xc-type in the INCAR file,                     |
|      a different type was found on the POTCAR file                          |
|          I HOPE YOU KNOW, WHAT YOU ARE  DOING                               |
|                                                                             |
 ----------------------------------------------------------------------------- 

  PAW_PBE Mn 06Sep2000                  :
 energy of atom  1       EATOM= -416.7541
 kinetic energy error for atom=    0.0024 (will be added to EATOM!!)
  PAW_PBE O 08Apr2002                   :
 energy of atom  2       EATOM= -432.3788
 kinetic energy error for atom=    0.0208 (will be added to EATOM!!)
 
 
 POSCAR: (Mn O2)4  (Pnma) ~  (Pearson #541374)_1 
  positions in direct lattice
  velocities in cartesian coordinates
  No initial velocities read in
 exchange correlation table for  LEXCH =       14
   RHO(1)=    0.500       N(1)  =     2000
   RHO(2)=  100.500       N(2)  =     4000
 


--------------------------------------------------------------------------------------------------------


 ion  position               nearest neighbor table
   1  0.136  0.250  0.022-   8 1.86   8 1.86  10 1.89   5 1.91  12 1.92  12 1.92   3 2.91   3 2.91

   2  0.636  0.250  0.478-   7 1.86   7 1.86   9 1.89   6 1.91  11 1.92  11 1.92   4 2.91   4 2.91

   3  0.864  0.750  0.978-   6 1.86   6 1.86  12 1.89   7 1.91  10 1.92  10 1.92   1 2.91   1 2.91

   4  0.364  0.750  0.522-   5 1.86   5 1.86  11 1.89   8 1.91   9 1.92   9 1.92   2 2.91   2 2.91

   5  0.275  0.250  0.333-   4 1.86   4 1.86   1 1.91
   6  0.775  0.250  0.167-   3 1.86   3 1.86   2 1.91
   7  0.725  0.750  0.667-   2 1.86   2 1.86   3 1.91
   8  0.225  0.750  0.833-   1 1.86   1 1.86   4 1.91
   9  0.467  0.250  0.711-   2 1.89   4 1.92   4 1.92
  10  0.967  0.250  0.789-   1 1.89   3 1.92   3 1.92
  11  0.533  0.750  0.289-   4 1.89   2 1.92   2 1.92
  12  0.033  0.750  0.211-   3 1.89   1 1.92   1 1.92
 
  LATTYP: Found a simple orthorhombic cell.
 ALAT       =     2.8660000000
 B/A-ratio  =     1.5816468946
 C/A-ratio  =     3.2344731333
  
  Lattice vectors:
  
 A1 = (   0.0000000000,   2.8660000000,   0.0000000000)
 A2 = (   0.0000000000,   0.0000000000,  -4.5330000000)
 A3 = (  -9.2700000000,   0.0000000000,   0.0000000000)


Analysis of symmetry for initial positions (statically):
=====================================================================
 Subroutine PRICEL returns:
 Original cell was already a primitive cell.
 

 Routine SETGRP: Setting up the symmetry group for a 
 simple orthorhombic supercell.


 Subroutine GETGRP returns: Found  8 space group operations
 (whereof  2 operations were pure point group operations)
 out of a pool of  8 trial point group operations.


The static configuration has the point symmetry S_2 .
 The point group associated with its full space group is D_2h.


Analysis of symmetry for dynamics (positions and initial velocities):
=====================================================================
 Subroutine PRICEL returns:
 Original cell was already a primitive cell.
 

 Routine SETGRP: Setting up the symmetry group for a 
 simple orthorhombic supercell.


 Subroutine GETGRP returns: Found  8 space group operations
 (whereof  2 operations were pure point group operations)
 out of a pool of  8 trial point group operations.


The dynamic configuration has the point symmetry S_2 .
 The point group associated with its full space group is D_2h.


Analysis of magnetic symmetry:
=====================================================================

 Subroutine MAGSYM returns: Found  8 space group operations
 (whereof  2 operations were pure point group operations)
 out of a pool of  8 trial space group operations
 (whereof  2 operations were pure point group operations)
 and found also     1 'primitive' translations


The magnetic configuration has the point symmetry S_2 .
 The point group associated with its full space group is D_2h.


 irot  :   1
 --------------------------------------------------------------------
 isymop:   1   0   0
           0   1   0
           0   0   1

 gtrans:     0.0000000     0.0000000     0.0000000

 ptrans:     0.0000000     0.0000000     0.0000000
 rotmap:
 (   1->   1)  (   2->   2)  (   3->   3)  (   4->   4)  (   5->   5) 
 (   6->   6)  (   7->   7)  (   8->   8)  (   9->   9)  (  10->  10) 
 (  11->  11)  (  12->  12) 


 irot  :   2
 --------------------------------------------------------------------
 isymop:  -1   0   0
           0  -1   0
           0   0  -1

 gtrans:     0.0000000     0.0000000     0.0000000

 ptrans:     0.0000000     0.0000000     0.0000000
 rotmap:
 (   1->   3)  (   2->   4)  (   3->   1)  (   4->   2)  (   5->   7) 
 (   6->   8)  (   7->   5)  (   8->   6)  (   9->  11)  (  10->  12) 
 (  11->   9)  (  12->  10) 


 irot  :   3
 --------------------------------------------------------------------
 isymop:   1   0   0
           0  -1   0
           0   0  -1

 gtrans:    -0.5000000     0.5000000    -0.5000000

 ptrans:     0.0000000     0.0000000     0.0000000
 rotmap:
 (   1->   2)  (   2->   1)  (   3->   4)  (   4->   3)  (   5->   6) 
 (   6->   5)  (   7->   8)  (   8->   7)  (   9->  10)  (  10->   9) 
 (  11->  12)  (  12->  11) 


 irot  :   4
 --------------------------------------------------------------------
 isymop:  -1   0   0
           0   1   0
           0   0   1

 gtrans:    -0.5000000     0.5000000    -0.5000000

 ptrans:     0.0000000     0.0000000     0.0000000
 rotmap:
 (   1->   4)  (   2->   3)  (   3->   2)  (   4->   1)  (   5->   8) 
 (   6->   7)  (   7->   6)  (   8->   5)  (   9->  12)  (  10->  11) 
 (  11->  10)  (  12->   9) 


 irot  :   5
 --------------------------------------------------------------------
 isymop:  -1   0   0
           0  -1   0
           0   0   1

 gtrans:    -0.5000000     0.0000000    -0.5000000

 ptrans:     0.0000000     0.0000000     0.0000000
 rotmap:
 (   1->   4)  (   2->   3)  (   3->   2)  (   4->   1)  (   5->   8) 
 (   6->   7)  (   7->   6)  (   8->   5)  (   9->  12)  (  10->  11) 
 (  11->  10)  (  12->   9) 


 irot  :   6
 --------------------------------------------------------------------
 isymop:   1   0   0
           0   1   0
           0   0  -1

 gtrans:    -0.5000000     0.0000000    -0.5000000

 ptrans:     0.0000000     0.0000000     0.0000000
 rotmap:
 (   1->   2)  (   2->   1)  (   3->   4)  (   4->   3)  (   5->   6) 
 (   6->   5)  (   7->   8)  (   8->   7)  (   9->  10)  (  10->   9) 
 (  11->  12)  (  12->  11) 


 irot  :   7
 --------------------------------------------------------------------
 isymop:  -1   0   0
           0   1   0
           0   0  -1

 gtrans:     0.0000000     0.5000000     0.0000000

 ptrans:     0.0000000     0.0000000     0.0000000
 rotmap:
 (   1->   3)  (   2->   4)  (   3->   1)  (   4->   2)  (   5->   7) 
 (   6->   8)  (   7->   5)  (   8->   6)  (   9->  11)  (  10->  12) 
 (  11->   9)  (  12->  10) 


 irot  :   8
 --------------------------------------------------------------------
 isymop:   1   0   0
           0  -1   0
           0   0   1

 gtrans:     0.0000000     0.5000000     0.0000000

 ptrans:     0.0000000     0.0000000     0.0000000
 rotmap:
 (   1->   1)  (   2->   2)  (   3->   3)  (   4->   4)  (   5->   5) 
 (   6->   6)  (   7->   7)  (   8->   8)  (   9->   9)  (  10->  10) 
 (  11->  11)  (  12->  12) 
 
 
 KPOINTS: Automatic mesh                          

Automatic generation of k-mesh.
Space group operators:
 irot       det(A)        alpha          n_x          n_y          n_z        tau_x        tau_y        tau_z
    1     1.000000     0.000000     1.000000     0.000000     0.000000     0.000000     0.000000     0.000000
    2    -1.000000     0.000000     1.000000     0.000000     0.000000     0.000000     0.000000     0.000000
    3     1.000000   180.000000     1.000000     0.000000     0.000000    -0.500000     0.500000    -0.500000
    4    -1.000000   180.000000     1.000000     0.000000     0.000000    -0.500000     0.500000    -0.500000
    5     1.000000   180.000000     0.000000     0.000000     1.000000    -0.500000     0.000000    -0.500000
    6    -1.000000   180.000000     0.000000     0.000000     1.000000    -0.500000     0.000000    -0.500000
    7     1.000000   180.000000     0.000000     1.000000     0.000000     0.000000     0.500000     0.000000
    8    -1.000000   180.000000     0.000000     1.000000     0.000000     0.000000     0.500000     0.000000
 
 Subroutine IBZKPT returns following result:
 ===========================================
 
 Found     40 irreducible k-points:
 
 Following reciprocal coordinates:
            Coordinates               Weight
  0.000000  0.000000  0.000000      1.000000
  0.333333  0.000000  0.000000      2.000000
  0.000000  0.111111  0.000000      2.000000
  0.333333  0.111111  0.000000      4.000000
  0.000000  0.222222  0.000000      2.000000
  0.333333  0.222222  0.000000      4.000000
  0.000000  0.333333  0.000000      2.000000
  0.333333  0.333333  0.000000      4.000000
  0.000000  0.444444  0.000000      2.000000
  0.333333  0.444444  0.000000      4.000000
  0.000000  0.000000  0.166667      2.000000
  0.333333  0.000000  0.166667      4.000000
  0.000000  0.111111  0.166667      4.000000
  0.333333  0.111111  0.166667      8.000000
  0.000000  0.222222  0.166667      4.000000
  0.333333  0.222222  0.166667      8.000000
  0.000000  0.333333  0.166667      4.000000
  0.333333  0.333333  0.166667      8.000000
  0.000000  0.444444  0.166667      4.000000
  0.333333  0.444444  0.166667      8.000000
  0.000000  0.000000  0.333333      2.000000
  0.333333  0.000000  0.333333      4.000000
  0.000000  0.111111  0.333333      4.000000
  0.333333  0.111111  0.333333      8.000000
  0.000000  0.222222  0.333333      4.000000
  0.333333  0.222222  0.333333      8.000000
  0.000000  0.333333  0.333333      4.000000
  0.333333  0.333333  0.333333      8.000000
  0.000000  0.444444  0.333333      4.000000
  0.333333  0.444444  0.333333      8.000000
  0.000000  0.000000  0.500000      1.000000
  0.333333  0.000000  0.500000      2.000000
  0.000000  0.111111  0.500000      2.000000
  0.333333  0.111111  0.500000      4.000000
  0.000000  0.222222  0.500000      2.000000
  0.333333  0.222222  0.500000      4.000000
  0.000000  0.333333  0.500000      2.000000
  0.333333  0.333333  0.500000      4.000000
  0.000000  0.444444  0.500000      2.000000
  0.333333  0.444444  0.500000      4.000000
 
 Following cartesian coordinates:
            Coordinates               Weight
  0.000000  0.000000  0.000000      1.000000
  0.035958  0.000000  0.000000      2.000000
  0.000000  0.038769  0.000000      2.000000
  0.035958  0.038769  0.000000      4.000000
  0.000000  0.077537  0.000000      2.000000
  0.035958  0.077537  0.000000      4.000000
  0.000000  0.116306  0.000000      2.000000
  0.035958  0.116306  0.000000      4.000000
  0.000000  0.155075  0.000000      2.000000
  0.035958  0.155075  0.000000      4.000000
  0.000000  0.000000  0.036767      2.000000
  0.035958  0.000000  0.036767      4.000000
  0.000000  0.038769  0.036767      4.000000
  0.035958  0.038769  0.036767      8.000000
  0.000000  0.077537  0.036767      4.000000
  0.035958  0.077537  0.036767      8.000000
  0.000000  0.116306  0.036767      4.000000
  0.035958  0.116306  0.036767      8.000000
  0.000000  0.155075  0.036767      4.000000
  0.035958  0.155075  0.036767      8.000000
  0.000000  0.000000  0.073535      2.000000
  0.035958  0.000000  0.073535      4.000000
  0.000000  0.038769  0.073535      4.000000
  0.035958  0.038769  0.073535      8.000000
  0.000000  0.077537  0.073535      4.000000
  0.035958  0.077537  0.073535      8.000000
  0.000000  0.116306  0.073535      4.000000
  0.035958  0.116306  0.073535      8.000000
  0.000000  0.155075  0.073535      4.000000
  0.035958  0.155075  0.073535      8.000000
  0.000000  0.000000  0.110302      1.000000
  0.035958  0.000000  0.110302      2.000000
  0.000000  0.038769  0.110302      2.000000
  0.035958  0.038769  0.110302      4.000000
  0.000000  0.077537  0.110302      2.000000
  0.035958  0.077537  0.110302      4.000000
  0.000000  0.116306  0.110302      2.000000
  0.035958  0.116306  0.110302      4.000000
  0.000000  0.155075  0.110302      2.000000
  0.035958  0.155075  0.110302      4.000000
 


--------------------------------------------------------------------------------------------------------




 Dimension of arrays:
   k-points           NKPTS =     40   k-points in BZ     NKDIM =     40   number of bands    NBANDS=     48
   number of dos      NEDOS =    301   number of ions     NIONS =     12
   non local maximal  LDIM  =      6   non local SUM 2l+1 LMDIM =     18
   total plane-waves  NPLWV =  24192
   max r-space proj   IRMAX =      1   max aug-charges    IRDMAX=   7584
   dimension x,y,z NGX =    54 NGY =   16 NGZ =   28
   dimension x,y,z NGXF=   108 NGYF=   32 NGZF=   56
   support grid    NGXF=   108 NGYF=   32 NGZF=   56
   ions per type =               4   8
 NGX,Y,Z   is equivalent  to a cutoff of   9.68,  9.28, 10.27 a.u.
 NGXF,Y,Z  is equivalent  to a cutoff of  19.37, 18.56, 20.54 a.u.


 I would recommend the setting:
   dimension x,y,z NGX =    52 NGY =   16 NGZ =   25
 SYSTEM =  (Mn O2)4  (Pnma) ~  (Pearson            
 POSCAR =  (Mn O2)4  (Pnma) ~  (Pearson #541374)_1 

 Startparameter for this run:
   NWRITE =      1    write-flag & timer
   PREC   = normal    normal or accurate (medium, high low for compatibility)
   ISTART =      0    job   : 0-new  1-cont  2-samecut
   ICHARG =      2    charge: 1-file 2-atom 10-const
   ISPIN  =      2    spin polarized calculation?
   LNONCOLLINEAR =      F non collinear calculations
   LSORBIT =      F    spin-orbit coupling
   INIWAV =      1    electr: 0-lowe 1-rand  2-diag
   LASPH  =      F    aspherical Exc in radial PAW
   METAGGA=      F    non-selfconsistent MetaGGA calc.

 Electronic Relaxation 1
   ENCUT  =  520.0 eV  38.22 Ry    6.18 a.u.  17.24  5.33  8.43*2*pi/ulx,y,z
   ENINI  =  520.0     initial cutoff
   ENAUG  =  605.4 eV  augmentation charge cutoff
   NELM   =     60;   NELMIN=  2; NELMDL= -5     # of ELM steps 
   EDIFF  = 0.1E-03   stopping-criterion for ELM
   LREAL  =      F    real-space projection
   NLSPLINE    = F    spline interpolate recip. space projectors
   LCOMPAT=      F    compatible to vasp.4.4
   GGA_COMPAT  = T    GGA compatible to vasp.4.4-vasp.4.6
   LMAXPAW     = -100 max onsite density
   LMAXMIX     =    4 max onsite mixed and CHGCAR
   VOSKOWN=      1    Vosko Wilk Nusair interpolation
   ROPT   =    0.00000   0.00000
 Ionic relaxation
   EDIFFG = 0.1E-02   stopping-criterion for IOM
   NSW    =    100    number of steps for IOM
   NBLOCK =      1;   KBLOCK =    100    inner block; outer block 
   IBRION =      2    ionic relax: 0-MD 1-quasi-New 2-CG
   NFREE  =      1    steps in history (QN), initial steepest desc. (CG)
   ISIF   =      3    stress and relaxation
   IWAVPR =     11    prediction:  0-non 1-charg 2-wave 3-comb
   ISYM   =      2    0-nonsym 1-usesym 2-fastsym
   LCORR  =      T    Harris-Foulkes like correction to forces

   POTIM  = 0.5000    time-step for ionic-motion
   TEIN   =    0.0    initial temperature
   TEBEG  =    0.0;   TEEND  =   0.0 temperature during run
   SMASS  =  -3.00    Nose mass-parameter (am)
   estimated Nose-frequenzy (Omega)   =  0.10E-29 period in steps =****** mass=  -0.196E-26a.u.
   SCALEE = 1.0000    scale energy and forces
   NPACO  =    256;   APACO  = 16.0  distance and # of slots for P.C.
   PSTRESS=    0.0 pullay stress

  Mass of Ions in am
   POMASS =  54.94 16.00
  Ionic Valenz
   ZVAL   =   7.00  6.00
  Atomic Wigner-Seitz radii
   RWIGS  =  -1.00 -1.00
  virtual crystal weights 
   VCA    =   1.00  1.00
   NELECT =      76.0000    total number of electrons
   NUPDOWN=      -1.0000    fix difference up-down

 DOS related values:
   EMIN   =  10.00;   EMAX   =-10.00  energy-range for DOS
   EFERMI =   0.00
   ISMEAR =     1;   SIGMA  =   0.20  broadening in eV -4-tet -1-fermi 0-gaus

 Electronic relaxation 2 (details)
   IALGO  =     38    algorithm
   LDIAG  =      T    sub-space diagonalisation (order eigenvalues)
   LSUBROT=      T    optimize rotation matrix (better conditioning)
   TURBO    =      0    0=normal 1=particle mesh
   IRESTART =      0    0=no restart 2=restart with 2 vectors
   NREBOOT  =      0    no. of reboots
   NMIN     =      0    reboot dimension
   EREF     =   0.00    reference energy to select bands
   IMIX   =      4    mixing-type and parameters
     AMIX     =   0.40;   BMIX     =  1.00
     AMIX_MAG =   1.60;   BMIX_MAG =  1.00
     AMIN     =   0.10
     WC   =   100.;   INIMIX=   1;  MIXPRE=   1;  MAXMIX= -45

 Intra band minimization:
   WEIMIN = 0.0010     energy-eigenvalue tresh-hold
   EBREAK =  0.52E-06  absolut break condition
   DEPER  =   0.30     relativ break condition  

   TIME   =   0.40     timestep for ELM

  volume/ion in A,a.u.               =      10.04        67.73
  Fermi-wavevector in a.u.,A,eV,Ry     =   1.404210  2.653573 26.828056  1.971807
  Thomas-Fermi vector in A             =   2.526795
 
 Write flags
   LWAVE  =      F    write WAVECAR
   LCHARG =      T    write CHGCAR
   LVTOT  =      F    write LOCPOT, total local potential
   LVHAR  =      F    write LOCPOT, Hartree potential only
   LELF   =      F    write electronic localiz. function (ELF)
   LORBIT =      0    0 simple, 1 ext, 2 COOP (PROOUT)


 Dipole corrections
   LMONO  =      F    monopole corrections only (constant potential shift)
   LDIPOL =      F    correct potential (dipole corrections)
   IDIPOL =      0    1-x, 2-y, 3-z, 4-all directions 
   EPSILON=  1.0000000 bulk dielectric constant

 LDA+U is selected, type is set to LDAUTYPE =  2
   angular momentum for each species LDAUL =     2   -1
   U (eV)           for each species LDAUU =   3.9  0.0
   J (eV)           for each species LDAUJ =   0.0  0.0
 Exchange correlation treatment:
   GGA     =    PS    GGA type
   LEXCH   =    14    internal setting for exchange type
   VOSKOWN=      1    Vosko Wilk Nusair interpolation
   LHFCALC =     F    Hartree Fock is set to
   LHFONE  =     F    Hartree Fock one center treatment
   AEXX    =    0.0000 exact exchange contribution

 Linear response parameters
   LEPSILON=     F    determine dielectric tensor
   LRPA    =     F    only Hartree local field effects (RPA)
   LNABLA  =     F    use nabla operator in PAW spheres
   LVEL    =     F    velocity operator in full k-point grid
   LINTERFAST=   F  fast interpolation
   KINTER  =     0    interpolate to denser k-point grid
   CSHIFT  =0.1000    complex shift for real part using Kramers Kronig
   OMEGAMAX=  -1.0    maximum frequency
   DEG_THRESHOLD= 0.2000000E-02 threshold for treating states as degnerate
   RTIME   =    0.100 relaxation time in fs

 Orbital magnetization related:
   ORBITALMAG=     F  switch on orbital magnetization
   LCHIMAG   =     F  perturbation theory with respect to B field
   DQ        =  0.001000  dq finite difference perturbation B field



--------------------------------------------------------------------------------------------------------


 conjugate gradient relaxation of ions
 charge density and potential will be updated during run
 spin polarized calculation
 Variant of blocked Davidson
 Davidson routine will perform the subspace rotation
 perform sub-space diagonalisation
    after iterative eigenvector-optimisation
 modified Broyden-mixing scheme, WC =      100.0
 initial mixing is a Kerker type mixing with AMIX =  0.4000 and BMIX =      1.0000
 Hartree-type preconditioning will be used
 using additional bands           10
 reciprocal scheme for non local part
 use partial core corrections
 calculate Harris-corrections to forces 
   (improved forces if not selfconsistent)
 use gradient corrections 
 use of overlap-Matrix (Vanderbilt PP)
 Methfessel and Paxton  Order N= 1 SIGMA  =   0.20


--------------------------------------------------------------------------------------------------------


  energy-cutoff  :      520.00
  volume of cell :      120.43
      direct lattice vectors                 reciprocal lattice vectors
     9.270000000  0.000000000  0.000000000     0.107874865  0.000000000  0.000000000
     0.000000000  2.866000000  0.000000000     0.000000000  0.348918353  0.000000000
     0.000000000  0.000000000  4.533000000     0.000000000  0.000000000  0.220604456

  length of vectors
     9.270000000  2.866000000  4.533000000     0.107874865  0.348918353  0.220604456


 
 k-points in units of 2pi/SCALE and weight: Automatic mesh                          
   0.00000000  0.00000000  0.00000000       0.006
   0.03595829  0.00000000  0.00000000       0.012
   0.00000000  0.03876871  0.00000000       0.012
   0.03595829  0.03876871  0.00000000       0.025
   0.00000000  0.07753741  0.00000000       0.012
   0.03595829  0.07753741  0.00000000       0.025
   0.00000000  0.11630612  0.00000000       0.012
   0.03595829  0.11630612  0.00000000       0.025
   0.00000000  0.15507482  0.00000000       0.012
   0.03595829  0.15507482  0.00000000       0.025
   0.00000000  0.00000000  0.03676741       0.012
   0.03595829  0.00000000  0.03676741       0.025
   0.00000000  0.03876871  0.03676741       0.025
   0.03595829  0.03876871  0.03676741       0.049
   0.00000000  0.07753741  0.03676741       0.025
   0.03595829  0.07753741  0.03676741       0.049
   0.00000000  0.11630612  0.03676741       0.025
   0.03595829  0.11630612  0.03676741       0.049
   0.00000000  0.15507482  0.03676741       0.025
   0.03595829  0.15507482  0.03676741       0.049
   0.00000000  0.00000000  0.07353482       0.012
   0.03595829  0.00000000  0.07353482       0.025
   0.00000000  0.03876871  0.07353482       0.025
   0.03595829  0.03876871  0.07353482       0.049
   0.00000000  0.07753741  0.07353482       0.025
   0.03595829  0.07753741  0.07353482       0.049
   0.00000000  0.11630612  0.07353482       0.025
   0.03595829  0.11630612  0.07353482       0.049
   0.00000000  0.15507482  0.07353482       0.025
   0.03595829  0.15507482  0.07353482       0.049
   0.00000000  0.00000000  0.11030223       0.006
   0.03595829  0.00000000  0.11030223       0.012
   0.00000000  0.03876871  0.11030223       0.012
   0.03595829  0.03876871  0.11030223       0.025
   0.00000000  0.07753741  0.11030223       0.012
   0.03595829  0.07753741  0.11030223       0.025
   0.00000000  0.11630612  0.11030223       0.012
   0.03595829  0.11630612  0.11030223       0.025
   0.00000000  0.15507482  0.11030223       0.012
   0.03595829  0.15507482  0.11030223       0.025
 
 k-points in reciprocal lattice and weights: Automatic mesh                          
   0.00000000  0.00000000  0.00000000       0.006
   0.33333333  0.00000000  0.00000000       0.012
   0.00000000  0.11111111  0.00000000       0.012
   0.33333333  0.11111111  0.00000000       0.025
   0.00000000  0.22222222  0.00000000       0.012
   0.33333333  0.22222222  0.00000000       0.025
   0.00000000  0.33333333  0.00000000       0.012
   0.33333333  0.33333333  0.00000000       0.025
   0.00000000  0.44444444  0.00000000       0.012
   0.33333333  0.44444444  0.00000000       0.025
   0.00000000  0.00000000  0.16666667       0.012
   0.33333333  0.00000000  0.16666667       0.025
   0.00000000  0.11111111  0.16666667       0.025
   0.33333333  0.11111111  0.16666667       0.049
   0.00000000  0.22222222  0.16666667       0.025
   0.33333333  0.22222222  0.16666667       0.049
   0.00000000  0.33333333  0.16666667       0.025
   0.33333333  0.33333333  0.16666667       0.049
   0.00000000  0.44444444  0.16666667       0.025
   0.33333333  0.44444444  0.16666667       0.049
   0.00000000  0.00000000  0.33333333       0.012
   0.33333333  0.00000000  0.33333333       0.025
   0.00000000  0.11111111  0.33333333       0.025
   0.33333333  0.11111111  0.33333333       0.049
   0.00000000  0.22222222  0.33333333       0.025
   0.33333333  0.22222222  0.33333333       0.049
   0.00000000  0.33333333  0.33333333       0.025
   0.33333333  0.33333333  0.33333333       0.049
   0.00000000  0.44444444  0.33333333       0.025
   0.33333333  0.44444444  0.33333333       0.049
   0.00000000  0.00000000  0.50000000       0.006
   0.33333333  0.00000000  0.50000000       0.012
   0.00000000  0.11111111  0.50000000       0.012
   0.33333333  0.11111111  0.50000000       0.025
   0.00000000  0.22222222  0.50000000       0.012
   0.33333333  0.22222222  0.50000000       0.025
   0.00000000  0.33333333  0.50000000       0.012
   0.33333333  0.33333333  0.50000000       0.025
   0.00000000  0.44444444  0.50000000       0.012
   0.33333333  0.44444444  0.50000000       0.025
 
 position of ions in fractional coordinates (direct lattice) 
   0.13600000  0.25000000  0.02200000
   0.63600000  0.25000000  0.47800000
   0.86400000  0.75000000  0.97800000
   0.36400000  0.75000000  0.52200000
   0.27500000  0.25000000  0.33300000
   0.77500000  0.25000000  0.16700000
   0.72500000  0.75000000  0.66700000
   0.22500000  0.75000000  0.83300000
   0.46700000  0.25000000  0.71100000
   0.96700000  0.25000000  0.78900000
   0.53300000  0.75000000  0.28900000
   0.03300000  0.75000000  0.21100000
 
 position of ions in cartesian coordinates  (Angst):
   1.26072000  0.71650000  0.09972600
   5.89572000  0.71650000  2.16677400
   8.00928000  2.14950000  4.43327400
   3.37428000  2.14950000  2.36622600
   2.54925000  0.71650000  1.50948900
   7.18425000  0.71650000  0.75701100
   6.72075000  2.14950000  3.02351100
   2.08575000  2.14950000  3.77598900
   4.32909000  0.71650000  3.22296300
   8.96409000  0.71650000  3.57653700
   4.94091000  2.14950000  1.31003700
   0.30591000  2.14950000  0.95646300
 


--------------------------------------------------------------------------------------------------------


 k-point  1 :   0.0000 0.0000 0.0000  plane waves:    3237
 k-point  2 :   0.3333 0.0000 0.0000  plane waves:    3240
 k-point  3 :   0.0000 0.1111 0.0000  plane waves:    3243
 k-point  4 :   0.3333 0.1111 0.0000  plane waves:    3263
 k-point  5 :   0.0000 0.2222 0.0000  plane waves:    3249
 k-point  6 :   0.3333 0.2222 0.0000  plane waves:    3242
 k-point  7 :   0.0000 0.3333 0.0000  plane waves:    3234
 k-point  8 :   0.3333 0.3333 0.0000  plane waves:    3238
 k-point  9 :   0.0000 0.4444 0.0000  plane waves:    3266
 k-point 10 :   0.3333 0.4444 0.0000  plane waves:    3255
 k-point 11 :   0.0000 0.0000 0.1667  plane waves:    3239
 k-point 12 :   0.3333 0.0000 0.1667  plane waves:    3257
 k-point 13 :   0.0000 0.1111 0.1667  plane waves:    3246
 k-point 14 :   0.3333 0.1111 0.1667  plane waves:    3259
 k-point 15 :   0.0000 0.2222 0.1667  plane waves:    3256
 k-point 16 :   0.3333 0.2222 0.1667  plane waves:    3237
 k-point 17 :   0.0000 0.3333 0.1667  plane waves:    3237
 k-point 18 :   0.3333 0.3333 0.1667  plane waves:    3240
 k-point 19 :   0.0000 0.4444 0.1667  plane waves:    3248
 k-point 20 :   0.3333 0.4444 0.1667  plane waves:    3246
 k-point 21 :   0.0000 0.0000 0.3333  plane waves:    3259
 k-point 22 :   0.3333 0.0000 0.3333  plane waves:    3251
 k-point 23 :   0.0000 0.1111 0.3333  plane waves:    3244
 k-point 24 :   0.3333 0.1111 0.3333  plane waves:    3256
 k-point 25 :   0.0000 0.2222 0.3333  plane waves:    3245
 k-point 26 :   0.3333 0.2222 0.3333  plane waves:    3243
 k-point 27 :   0.0000 0.3333 0.3333  plane waves:    3242
 k-point 28 :   0.3333 0.3333 0.3333  plane waves:    3227
 k-point 29 :   0.0000 0.4444 0.3333  plane waves:    3235
 k-point 30 :   0.3333 0.4444 0.3333  plane waves:    3233
 k-point 31 :   0.0000 0.0000 0.5000  plane waves:    3256
 k-point 32 :   0.3333 0.0000 0.5000  plane waves:    3256
 k-point 33 :   0.0000 0.1111 0.5000  plane waves:    3240
 k-point 34 :   0.3333 0.1111 0.5000  plane waves:    3244
 k-point 35 :   0.0000 0.2222 0.5000  plane waves:    3238
 k-point 36 :   0.3333 0.2222 0.5000  plane waves:    3258
 k-point 37 :   0.0000 0.3333 0.5000  plane waves:    3226
 k-point 38 :   0.3333 0.3333 0.5000  plane waves:    3230
 k-point 39 :   0.0000 0.4444 0.5000  plane waves:    3218
 k-point 40 :   0.3333 0.4444 0.5000  plane waves:    3214

 maximum and minimum number of plane-waves per node :       840      780

 maximum number of plane-waves:      3266
 maximum index in each direction: 
   IXMAX=   17   IYMAX=    5   IZMAX=    8
   IXMIN=  -17   IYMIN=   -5   IZMIN=   -8

 WARNING: aliasing errors must be expected set NGX to  70 to avoid them
 WARNING: aliasing errors must be expected set NGY to  22 to avoid them
 WARNING: aliasing errors must be expected set NGZ to  34 to avoid them
 aliasing errors are usually negligible using standard VASP settings
 and one can safely disregard these warnings

 parallel 3D FFT for wavefunctions:
    minimum data exchange during FFTs selected (reduces bandwidth)
 parallel 3D FFT for charge:
    minimum data exchange during FFTs selected (reduces bandwidth)


 total amount of memory used by VASP on root node    48225. kBytes
========================================================================

   base      :      30000. kBytes
   nonl-proj :       9838. kBytes
   fftplans  :        438. kBytes
   grid      :       1098. kBytes
   one-center:         93. kBytes
   wavefun   :       6758. kBytes
 
 Broyden mixing: mesh for mixing (old mesh)
   NGX = 35   NGY = 11   NGZ = 17
  (NGX  =108   NGY  = 32   NGZ  = 56)
  gives a total of   6545 points

 initial charge density was supplied:
 charge density of overlapping atoms calculated
 number of electron      76.0000000 magnetization       0.0000000
 keeping initial charge density in first step


--------------------------------------------------------------------------------------------------------


 Maximum index for augmentation-charges          431 (set IRDMAX)


--------------------------------------------------------------------------------------------------------


 First call to EWALD:  gamma=   0.359
 Maximum number of real-space cells 2x 4x 3
 Maximum number of reciprocal cells 5x 2x 3

 FEWALD executed in parallel
    FEWALD:  cpu time    0.00: real time    0.00


----------------------------------------- Iteration    1(   1)  ---------------------------------------


    POTLOK:  cpu time    0.01: real time    0.01
    SETDIJ:  cpu time    0.01: real time    0.01
     EDDAV:  cpu time    1.64: real time    1.64
       DOS:  cpu time    0.00: real time    0.00
    --------------------------------------------
      LOOP:  cpu time    1.66: real time    1.74

 eigenvalue-minimisations  :  7680
 total energy-change (2. order) : 0.1086894E+04  (-0.3395619E+04)
 number of electron      76.0000000 magnetization       0.0000000
 augmentation part       76.0000000 magnetization       0.0000000

 Free energy of the ion-electron system (eV)
  ---------------------------------------------------
  alpha Z        PSCENC =       315.99999506
  Ewald energy   TEWEN  =     -4123.92964924
  -1/2 Hartree   DENC   =     -1338.17840341
  -exchange  EXHF       =         0.00000000
  -V(xc)+E(xc)   XCENC  =       185.95391863
  PAW double counting   =      4385.75833043    -4310.80712112
  entropy T*S    EENTRO =        -0.00176312
  eigenvalues    EBANDS =       861.52836700
  atomic energy  EATOM  =      5110.57042958
  ---------------------------------------------------
  free energy    TOTEN  =      1086.89410380 eV

  energy without entropy =     1086.89586692  energy(sigma->0) =     1086.89469151


--------------------------------------------------------------------------------------------------------




----------------------------------------- Iteration    1(   2)  ---------------------------------------


     EDDAV:  cpu time    1.65: real time    1.65
       DOS:  cpu time    0.00: real time    0.00
    --------------------------------------------
      LOOP:  cpu time    1.66: real time    1.85

 eigenvalue-minimisations  :  7784
 total energy-change (2. order) :-0.9420336E+03  (-0.8992720E+03)
 number of electron      76.0000000 magnetization       0.0000000
 augmentation part       76.0000000 magnetization       0.0000000

 Free energy of the ion-electron system (eV)
  ---------------------------------------------------
  alpha Z        PSCENC =       315.99999506
  Ewald energy   TEWEN  =     -4123.92964924
  -1/2 Hartree   DENC   =     -1338.17840341
  -exchange  EXHF       =         0.00000000
  -V(xc)+E(xc)   XCENC  =       185.95391863
  PAW double counting   =      4385.75833043    -4310.80712112
  entropy T*S    EENTRO =         0.00580925
  eigenvalues    EBANDS =       -80.51280530
  atomic energy  EATOM  =      5110.57042958
  ---------------------------------------------------
  free energy    TOTEN  =       144.86050387 eV

  energy without entropy =      144.85469462  energy(sigma->0) =      144.85856745


--------------------------------------------------------------------------------------------------------




----------------------------------------- Iteration    1(   3)  ---------------------------------------


     EDDAV:  cpu time    2.22: real time    2.22
       DOS:  cpu time    0.00: real time    0.00
    --------------------------------------------
      LOOP:  cpu time    2.22: real time    2.42

 eigenvalue-minimisations  : 11464
 total energy-change (2. order) :-0.2374827E+03  (-0.2252736E+03)
 number of electron      76.0000000 magnetization       0.0000000
 augmentation part       76.0000000 magnetization       0.0000000

 Free energy of the ion-electron system (eV)
  ---------------------------------------------------
  alpha Z        PSCENC =       315.99999506
  Ewald energy   TEWEN  =     -4123.92964924
  -1/2 Hartree   DENC   =     -1338.17840341
  -exchange  EXHF       =         0.00000000
  -V(xc)+E(xc)   XCENC  =       185.95391863
  PAW double counting   =      4385.75833043    -4310.80712112
  entropy T*S    EENTRO =         0.01457492
  eigenvalues    EBANDS =      -318.00422358
  atomic energy  EATOM  =      5110.57042958
  ---------------------------------------------------
  free energy    TOTEN  =       -92.62214874 eV

  energy without entropy =      -92.63672366  energy(sigma->0) =      -92.62700704


--------------------------------------------------------------------------------------------------------




----------------------------------------- Iteration    1(   4)  ---------------------------------------


     EDDAV:  cpu time    2.33: real time    2.33
       DOS:  cpu time    0.00: real time    0.00
    --------------------------------------------
      LOOP:  cpu time    2.33: real time    2.43

 eigenvalue-minimisations  : 12240
 total energy-change (2. order) :-0.2376316E+02  (-0.2312320E+02)
 number of electron      76.0000000 magnetization       0.0000000
 augmentation part       76.0000000 magnetization       0.0000000

 Free energy of the ion-electron system (eV)
  ---------------------------------------------------
  alpha Z        PSCENC =       315.99999506
  Ewald energy   TEWEN  =     -4123.92964924
  -1/2 Hartree   DENC   =     -1338.17840341
  -exchange  EXHF       =         0.00000000
  -V(xc)+E(xc)   XCENC  =       185.95391863
  PAW double counting   =      4385.75833043    -4310.80712112
  entropy T*S    EENTRO =         0.01600294
  eigenvalues    EBANDS =      -341.76881090
  atomic energy  EATOM  =      5110.57042958
  ---------------------------------------------------
  free energy    TOTEN  =      -116.38530803 eV

  energy without entropy =     -116.40131098  energy(sigma->0) =     -116.39064235


--------------------------------------------------------------------------------------------------------




----------------------------------------- Iteration    1(   5)  ---------------------------------------


     EDDAV:  cpu time    2.26: real time    2.26
       DOS:  cpu time    0.00: real time    0.00
    CHARGE:  cpu time    0.07: real time    0.07
    MIXING:  cpu time    0.00: real time    0.00
    --------------------------------------------
      LOOP:  cpu time    2.33: real time    2.45

 eigenvalue-minimisations  : 11856
 total energy-change (2. order) :-0.6731952E+00  (-0.6686213E+00)
 number of electron      76.0000058 magnetization       0.0000000
 augmentation part       15.1042783 magnetization       0.0000000

 Broyden mixing:
  rms(total) = 0.57924E+01    rms(broyden)= 0.57920E+01
  rms(prec ) = 0.68229E+01
  weight for this iteration     100.00

 Free energy of the ion-electron system (eV)
  ---------------------------------------------------
  alpha Z        PSCENC =       315.99999506
  Ewald energy   TEWEN  =     -4123.92964924
  -1/2 Hartree   DENC   =     -1338.17840341
  -exchange  EXHF       =         0.00000000
  -V(xc)+E(xc)   XCENC  =       185.95391863
  PAW double counting   =      4385.75833043    -4310.80712112
  entropy T*S    EENTRO =         0.01625987
  eigenvalues    EBANDS =      -342.44226299
  atomic energy  EATOM  =      5110.57042958
  ---------------------------------------------------
  free energy    TOTEN  =      -117.05850319 eV

  energy without entropy =     -117.07476307  energy(sigma->0) =     -117.06392315


--------------------------------------------------------------------------------------------------------




----------------------------------------- Iteration    1(   6)  ---------------------------------------


    POTLOK:  cpu time    0.02: real time    0.02
    SETDIJ:  cpu time    0.01: real time    0.01
     EDDAV:  cpu time    2.37: real time    2.38
       DOS:  cpu time    0.00: real time    0.00
    CHARGE:  cpu time    0.07: real time    0.07
    MIXING:  cpu time    0.00: real time    0.00
    --------------------------------------------
      LOOP:  cpu time    2.47: real time    2.68

 eigenvalue-minimisations  : 12496
 total energy-change (2. order) : 0.1697684E+02  (-0.3227680E+02)
 number of electron      76.0000073 magnetization       0.0000000
 augmentation part       21.1084007 magnetization       0.0000000

 Broyden mixing:
  rms(total) = 0.66366E+01    rms(broyden)= 0.66361E+01
  rms(prec ) = 0.75556E+01
  weight for this iteration     100.00

 eigenvalues of (default mixing * dielectric matrix)
  average eigenvalue GAMMA=   0.2675
  0.2675

 Free energy of the ion-electron system (eV)
  ---------------------------------------------------
  alpha Z        PSCENC =       315.99999506
  Ewald energy   TEWEN  =     -4123.92964924
  -1/2 Hartree   DENC   =     -1375.41124123
  -exchange  EXHF       =         0.00000000
  -V(xc)+E(xc)   XCENC  =       194.16393281
  PAW double counting   =      5220.03065799    -5132.83228242
  entropy T*S    EENTRO =         0.02582028
  eigenvalues    EBANDS =      -308.69932917
  atomic energy  EATOM  =      5110.57042958
  ---------------------------------------------------
  free energy    TOTEN  =      -100.08166634 eV

  energy without entropy =     -100.10748662  energy(sigma->0) =     -100.09027310


--------------------------------------------------------------------------------------------------------




----------------------------------------- Iteration    1(   7)  ---------------------------------------


    POTLOK:  cpu time    0.01: real time    0.01
    SETDIJ:  cpu time    0.00: real time    0.01
     EDDAV:  cpu time    2.66: real time    2.66
       DOS:  cpu time    0.00: real time    0.00
    CHARGE:  cpu time    0.07: real time    0.07
    MIXING:  cpu time    0.00: real time    0.00
    --------------------------------------------
      LOOP:  cpu time    2.75: real time    2.98

 eigenvalue-minimisations  : 14232
 total energy-change (2. order) : 0.1015742E+02  (-0.1503087E+02)
 number of electron      76.0000057 magnetization       0.0000000
 augmentation part       16.3272002 magnetization       0.0000000

 Broyden mixing:
  rms(total) = 0.25991E+01    rms(broyden)= 0.25989E+01
  rms(prec ) = 0.27728E+01
  weight for this iteration     100.00

 eigenvalues of (default mixing * dielectric matrix)
  average eigenvalue GAMMA=   0.6314
  0.9182  0.3446

 Free energy of the ion-electron system (eV)
  ---------------------------------------------------
  alpha Z        PSCENC =       315.99999506
  Ewald energy   TEWEN  =     -4123.92964924
  -1/2 Hartree   DENC   =     -1366.96394794
  -exchange  EXHF       =         0.00000000
  -V(xc)+E(xc)   XCENC  =       189.59283205
  PAW double counting   =      5531.00731378    -5458.88149380
  entropy T*S    EENTRO =         0.01045069
  eigenvalues    EBANDS =      -287.33017249
  atomic energy  EATOM  =      5110.57042958
  ---------------------------------------------------
  free energy    TOTEN  =       -89.92424232 eV

  energy without entropy =      -89.93469301  energy(sigma->0) =      -89.92772588


--------------------------------------------------------------------------------------------------------




----------------------------------------- Iteration    1(   8)  ---------------------------------------


    POTLOK:  cpu time    0.01: real time    0.01
    SETDIJ:  cpu time    0.01: real time    0.01
     EDDAV:  cpu time    2.45: real time    2.45
       DOS:  cpu time    0.00: real time    0.00
    CHARGE:  cpu time    0.07: real time    0.07
    MIXING:  cpu time    0.00: real time    0.00
    --------------------------------------------
      LOOP:  cpu time    2.54: real time    2.64

 eigenvalue-minimisations  : 12992
 total energy-change (2. order) : 0.3814713E+00  (-0.1188349E+01)
 number of electron      76.0000059 magnetization       0.0000000
 augmentation part       17.0528381 magnetization       0.0000000

 Broyden mixing:
  rms(total) = 0.12006E+01    rms(broyden)= 0.12006E+01
  rms(prec ) = 0.12889E+01
  weight for this iteration     100.00

 eigenvalues of (default mixing * dielectric matrix)
  average eigenvalue GAMMA=   0.9074
  1.6747  0.6758  0.3718

 Free energy of the ion-electron system (eV)
  ---------------------------------------------------
  alpha Z        PSCENC =       315.99999506
  Ewald energy   TEWEN  =     -4123.92964924
  -1/2 Hartree   DENC   =     -1348.16504457
  -exchange  EXHF       =         0.00000000
  -V(xc)+E(xc)   XCENC  =       190.35391310
  PAW double counting   =      6002.52812720    -5931.56269693
  entropy T*S    EENTRO =         0.01299168
  eigenvalues    EBANDS =      -305.35083693
  atomic energy  EATOM  =      5110.57042958
  ---------------------------------------------------
  free energy    TOTEN  =       -89.54277104 eV

  energy without entropy =      -89.55576273  energy(sigma->0) =      -89.54710161


--------------------------------------------------------------------------------------------------------




----------------------------------------- Iteration    1(   9)  ---------------------------------------


    POTLOK:  cpu time    0.01: real time    0.01
    SETDIJ:  cpu time    0.01: real time    0.01
     EDDAV:  cpu time    2.78: real time    2.78
       DOS:  cpu time    0.00: real time    0.00
    CHARGE:  cpu time    0.07: real time    0.07
    MIXING:  cpu time    0.00: real time    0.00
    --------------------------------------------
      LOOP:  cpu time    2.87: real time    2.98

 eigenvalue-minimisations  : 14952
 total energy-change (2. order) :-0.1435727E+00  (-0.4099253E+00)
 number of electron      76.0000063 magnetization      -0.0000000
 augmentation part       17.8402394 magnetization      -0.0000000

 Broyden mixing:
  rms(total) = 0.93217E+00    rms(broyden)= 0.93209E+00
  rms(prec ) = 0.10499E+01
  weight for this iteration     100.00

 eigenvalues of (default mixing * dielectric matrix)
  average eigenvalue GAMMA=   1.0246
  1.9836  1.1175  0.3968  0.6006

 Free energy of the ion-electron system (eV)
  ---------------------------------------------------
  alpha Z        PSCENC =       315.99999506
  Ewald energy   TEWEN  =     -4123.92964924
  -1/2 Hartree   DENC   =     -1346.83496297
  -exchange  EXHF       =         0.00000000
  -V(xc)+E(xc)   XCENC  =       192.41741562
  PAW double counting   =      6412.67990947    -6343.23313209
  entropy T*S    EENTRO =         0.01142107
  eigenvalues    EBANDS =      -307.36777023
  atomic energy  EATOM  =      5110.57042958
  ---------------------------------------------------
  free energy    TOTEN  =       -89.68634374 eV

  energy without entropy =      -89.69776481  energy(sigma->0) =      -89.69015076


--------------------------------------------------------------------------------------------------------




----------------------------------------- Iteration    1(  10)  ---------------------------------------


    POTLOK:  cpu time    0.01: real time    0.01
    SETDIJ:  cpu time    0.00: real time    0.01
     EDDAV:  cpu time    2.66: real time    2.66
       DOS:  cpu time    0.00: real time    0.00
    CHARGE:  cpu time    0.07: real time    0.07
    MIXING:  cpu time    0.00: real time    0.00
    --------------------------------------------
      LOOP:  cpu time    2.75: real time    2.85

 eigenvalue-minimisations  : 14248
 total energy-change (2. order) : 0.3118749E+00  (-0.2069296E+00)
 number of electron      76.0000060 magnetization      -0.0000000
 augmentation part       17.4544412 magnetization      -0.0000000

 Broyden mixing:
  rms(total) = 0.29993E+00    rms(broyden)= 0.29987E+00
  rms(prec ) = 0.33079E+00
  weight for this iteration     100.00

 eigenvalues of (default mixing * dielectric matrix)
  average eigenvalue GAMMA=   0.9836
  2.2251  1.1214  0.3965  0.5876  0.5876

 Free energy of the ion-electron system (eV)
  ---------------------------------------------------
  alpha Z        PSCENC =       315.99999506
  Ewald energy   TEWEN  =     -4123.92964924
  -1/2 Hartree   DENC   =     -1347.78027623
  -exchange  EXHF       =         0.00000000
  -V(xc)+E(xc)   XCENC  =       192.94860907
  PAW double counting   =      6565.20683535    -6497.66393840
  entropy T*S    EENTRO =         0.01019900
  eigenvalues    EBANDS =      -304.73667299
  atomic energy  EATOM  =      5110.57042958
  ---------------------------------------------------
  free energy    TOTEN  =       -89.37446882 eV

  energy without entropy =      -89.38466782  energy(sigma->0) =      -89.37786849


--------------------------------------------------------------------------------------------------------




----------------------------------------- Iteration    1(  11)  ---------------------------------------


    POTLOK:  cpu time    0.01: real time    0.01
    SETDIJ:  cpu time    0.00: real time    0.01
     EDDAV:  cpu time    2.46: real time    2.46
       DOS:  cpu time    0.00: real time    0.00
    CHARGE:  cpu time    0.07: real time    0.07
    MIXING:  cpu time    0.00: real time    0.00
    --------------------------------------------
      LOOP:  cpu time    2.55: real time    2.65

 eigenvalue-minimisations  : 12952
 total energy-change (2. order) : 0.1617494E-01  (-0.2231303E-01)
 number of electron      76.0000060 magnetization      -0.0000000
 augmentation part       17.3799680 magnetization      -0.0000000

 Broyden mixing:
  rms(total) = 0.12084E+00    rms(broyden)= 0.12083E+00
  rms(prec ) = 0.12938E+00
  weight for this iteration     100.00

 eigenvalues of (default mixing * dielectric matrix)
  average eigenvalue GAMMA=   1.0155
  2.1975  1.1608  1.1608  0.3986  0.5876  0.5876

 Free energy of the ion-electron system (eV)
  ---------------------------------------------------
  alpha Z        PSCENC =       315.99999506
  Ewald energy   TEWEN  =     -4123.92964924
  -1/2 Hartree   DENC   =     -1348.06381773
  -exchange  EXHF       =         0.00000000
  -V(xc)+E(xc)   XCENC  =       192.63381567
  PAW double counting   =      6629.43724051    -6563.03713623
  entropy T*S    EENTRO =         0.01244492
  eigenvalues    EBANDS =      -302.98161641
  atomic energy  EATOM  =      5110.57042958
  ---------------------------------------------------
  free energy    TOTEN  =       -89.35829388 eV

  energy without entropy =      -89.37073881  energy(sigma->0) =      -89.36244219


--------------------------------------------------------------------------------------------------------




----------------------------------------- Iteration    1(  12)  ---------------------------------------


    POTLOK:  cpu time    0.01: real time    0.01
    SETDIJ:  cpu time    0.00: real time    0.01
     EDDAV:  cpu time    2.47: real time    2.47
       DOS:  cpu time    0.00: real time    0.00
    CHARGE:  cpu time    0.07: real time    0.07
    MIXING:  cpu time    0.00: real time    0.00
    --------------------------------------------
      LOOP:  cpu time    2.56: real time    2.78

 eigenvalue-minimisations  : 13136
 total energy-change (2. order) :-0.1063929E-01  (-0.1156380E-01)
 number of electron      76.0000061 magnetization      -0.0000000
 augmentation part       17.3685565 magnetization      -0.0000000

 Broyden mixing:
  rms(total) = 0.50296E-01    rms(broyden)= 0.50264E-01
  rms(prec ) = 0.65563E-01
  weight for this iteration     100.00

 eigenvalues of (default mixing * dielectric matrix)
  average eigenvalue GAMMA=   1.0026
  2.2126  1.3041  1.3041  0.3978  0.6091  0.5954  0.5954

 Free energy of the ion-electron system (eV)
  ---------------------------------------------------
  alpha Z        PSCENC =       315.99999506
  Ewald energy   TEWEN  =     -4123.92964924
  -1/2 Hartree   DENC   =     -1348.68564232
  -exchange  EXHF       =         0.00000000
  -V(xc)+E(xc)   XCENC  =       192.36551060
  PAW double counting   =      6630.85414851    -6564.49118797
  entropy T*S    EENTRO =         0.01326011
  eigenvalues    EBANDS =      -302.06579751
  atomic energy  EATOM  =      5110.57042958
  ---------------------------------------------------
  free energy    TOTEN  =       -89.36893317 eV

  energy without entropy =      -89.38219329  energy(sigma->0) =      -89.37335321


--------------------------------------------------------------------------------------------------------




----------------------------------------- Iteration    1(  13)  ---------------------------------------


    POTLOK:  cpu time    0.02: real time    0.02
    SETDIJ:  cpu time    0.00: real time    0.01
     EDDAV:  cpu time    2.42: real time    2.42
       DOS:  cpu time    0.00: real time    0.00
    CHARGE:  cpu time    0.07: real time    0.07
    MIXING:  cpu time    0.00: real time    0.00
    --------------------------------------------
      LOOP:  cpu time    2.51: real time    2.71

 eigenvalue-minimisations  : 12664
 total energy-change (2. order) : 0.1644795E-02  (-0.1319806E-02)
 number of electron      76.0000061 magnetization      -0.0000000
 augmentation part       17.3743889 magnetization      -0.0000000

 Broyden mixing:
  rms(total) = 0.33348E-01    rms(broyden)= 0.33345E-01
  rms(prec ) = 0.38237E-01
  weight for this iteration     100.00

 eigenvalues of (default mixing * dielectric matrix)
  average eigenvalue GAMMA=   0.9717
  2.1775  1.4785  1.1759  0.3981  0.6566  0.6566  0.6152  0.6152

 Free energy of the ion-electron system (eV)
  ---------------------------------------------------
  alpha Z        PSCENC =       315.99999506
  Ewald energy   TEWEN  =     -4123.92964924
  -1/2 Hartree   DENC   =     -1349.00412855
  -exchange  EXHF       =         0.00000000
  -V(xc)+E(xc)   XCENC  =       192.29178926
  PAW double counting   =      6630.88373831    -6564.50622055
  entropy T*S    EENTRO =         0.01288772
  eigenvalues    EBANDS =      -301.68612995
  atomic energy  EATOM  =      5110.57042958
  ---------------------------------------------------
  free energy    TOTEN  =       -89.36728838 eV

  energy without entropy =      -89.38017610  energy(sigma->0) =      -89.37158428


--------------------------------------------------------------------------------------------------------




----------------------------------------- Iteration    1(  14)  ---------------------------------------


    POTLOK:  cpu time    0.01: real time    0.01
    SETDIJ:  cpu time    0.00: real time    0.01
     EDDAV:  cpu time    2.41: real time    2.41
       DOS:  cpu time    0.00: real time    0.00
    CHARGE:  cpu time    0.07: real time    0.07
    MIXING:  cpu time    0.00: real time    0.00
    --------------------------------------------
      LOOP:  cpu time    2.50: real time    2.60

 eigenvalue-minimisations  : 12808
 total energy-change (2. order) : 0.8353261E-04  (-0.4784091E-03)
 number of electron      76.0000060 magnetization      -0.0000000
 augmentation part       17.3671426 magnetization      -0.0000000

 Broyden mixing:
  rms(total) = 0.93614E-02    rms(broyden)= 0.93484E-02
  rms(prec ) = 0.10365E-01
  weight for this iteration     100.00

 eigenvalues of (default mixing * dielectric matrix)
  average eigenvalue GAMMA=   1.0273
  2.2412  1.8058  1.1579  1.1579  0.3981  0.6393  0.6393  0.6031  0.6031

 Free energy of the ion-electron system (eV)
  ---------------------------------------------------
  alpha Z        PSCENC =       315.99999506
  Ewald energy   TEWEN  =     -4123.92964924
  -1/2 Hartree   DENC   =     -1349.07103011
  -exchange  EXHF       =         0.00000000
  -V(xc)+E(xc)   XCENC  =       192.29940877
  PAW double counting   =      6631.75892267    -6565.37821002
  entropy T*S    EENTRO =         0.01272869
  eigenvalues    EBANDS =      -301.62980025
  atomic energy  EATOM  =      5110.57042958
  ---------------------------------------------------
  free energy    TOTEN  =       -89.36720485 eV

  energy without entropy =      -89.37993353  energy(sigma->0) =      -89.37144774


--------------------------------------------------------------------------------------------------------




----------------------------------------- Iteration    1(  15)  ---------------------------------------


    POTLOK:  cpu time    0.01: real time    0.01
    SETDIJ:  cpu time    0.00: real time    0.01
     EDDAV:  cpu time    1.56: real time    1.56
       DOS:  cpu time    0.00: real time    0.00
    --------------------------------------------
      LOOP:  cpu time    1.58: real time    1.67

 eigenvalue-minimisations  :  6864
 total energy-change (2. order) :-0.8813697E-04  (-0.3274270E-04)
 number of electron      76.0000060 magnetization      -0.0000000
 augmentation part       17.3671426 magnetization      -0.0000000

 Free energy of the ion-electron system (eV)
  ---------------------------------------------------
  alpha Z        PSCENC =       315.99999506
  Ewald energy   TEWEN  =     -4123.92964924
  -1/2 Hartree   DENC   =     -1349.18006663
  -exchange  EXHF       =         0.00000000
  -V(xc)+E(xc)   XCENC  =       192.31527659
  PAW double counting   =      6634.29814842    -6567.91942834
  entropy T*S    EENTRO =         0.01273056
  eigenvalues    EBANDS =      -301.53472898
  atomic energy  EATOM  =      5110.57042958
  ---------------------------------------------------
  free energy    TOTEN  =       -89.36729298 eV

  energy without entropy =      -89.38002354  energy(sigma->0) =      -89.37153650


--------------------------------------------------------------------------------------------------------




 average (electrostatic) potential at core
  the test charge radii are     1.0210  0.7215
  (the norm of the test charge is              1.0000)
       1 -47.8299       2 -47.8299       3 -47.8299       4 -47.8299       5 -71.9595
       6 -71.9595       7 -71.9595       8 -71.9595       9 -72.0927      10 -72.0927
      11 -72.0927      12 -72.0927
 
 
 
 E-fermi :   2.3334     XC(G=0): -11.4792     alpha+bet :-10.5907


 spin component 1

 k-point   1 :       0.0000    0.0000    0.0000
  band No.  band energies     occupation 
      1     -16.6780      1.00000
      2     -16.0260      1.00000
      3     -15.8034      1.00000
      4     -14.8840      1.00000
      5     -14.6856      1.00000
      6     -14.5752      1.00000
      7     -14.3657      1.00000
      8     -14.3656      1.00000
      9      -4.7291      1.00000
     10      -4.3383      1.00000
     11      -3.7000      1.00000
     12      -3.5667      1.00000
     13      -3.1077      1.00000
     14      -2.8862      1.00000
     15      -2.8491      1.00000
     16      -2.8329      1.00000
     17      -2.4127      1.00000
     18      -1.9995      1.00000
     19      -1.9594      1.00000
     20      -1.8660      1.00000
     21      -1.6874      1.00000
     22      -0.8849      1.00000
     23      -0.6896      1.00000
     24      -0.6622      1.00000
     25      -0.3211      1.00000
     26      -0.2701      1.00000
     27      -0.1493      1.00000
     28       0.0675      1.00000
     29       0.5614      1.00000
     30       0.6519      1.00000
     31       0.7648      1.00000
     32       0.9880      1.00000
     33       1.2140      1.00000
     34       1.5613      1.00000
     35       1.6899      1.00003
     36       1.8289      1.00105
     37       2.2251      0.89203
     38       2.3316      0.50759
     39       4.2874     -0.00000
     40       4.3106     -0.00000
     41       4.3484     -0.00000
     42       5.1407     -0.00000
     43       5.2306     -0.00000
     44       5.2988     -0.00000
     45       5.6362     -0.00000
     46       6.1101     -0.00000
     47       6.2006     -0.00000
     48       6.3972     -0.00000

 k-point   2 :       0.3333    0.0000    0.0000
  band No.  band energies     occupation 
      1     -16.5854      1.00000
      2     -16.3246      1.00000
      3     -15.4546      1.00000
      4     -15.0726      1.00000
      5     -14.6330      1.00000
      6     -14.5898      1.00000
      7     -14.3631      1.00000
      8     -14.3626      1.00000
      9      -4.6028      1.00000
     10      -4.4045      1.00000
     11      -3.6580      1.00000
     12      -3.5671      1.00000
     13      -3.1519      1.00000
     14      -3.0695      1.00000
     15      -2.8770      1.00000
     16      -2.8585      1.00000
     17      -2.3473      1.00000
     18      -2.1607      1.00000
     19      -1.9018      1.00000
     20      -1.8141      1.00000
     21      -1.3974      1.00000
     22      -0.9634      1.00000
     23      -0.7638      1.00000
     24      -0.7402      1.00000
     25      -0.3727      1.00000
     26      -0.3247      1.00000
     27       0.1176      1.00000
     28       0.1609      1.00000
     29       0.4305      1.00000
     30       0.4331      1.00000
     31       1.0506      1.00000
     32       1.2986      1.00000
     33       1.3153      1.00000
     34       1.4701      1.00000
     35       1.5986      1.00000
     36       1.7799      1.00032
     37       2.0021      1.02048
     38       2.1695      0.99480
     39       4.3347     -0.00000
     40       4.3471     -0.00000
     41       4.5211     -0.00000
     42       4.9326     -0.00000
     43       5.1695     -0.00000
     44       5.2156     -0.00000
     45       5.9627     -0.00000
     46       6.1300     -0.00000
     47       6.1747     -0.00000
     48       6.2806     -0.00000

 k-point   3 :       0.0000    0.1111    0.0000
  band No.  band energies     occupation 
      1     -16.5581      1.00000
      2     -15.9337      1.00000
      3     -15.7148      1.00000
      4     -14.8471      1.00000
      5     -14.6910      1.00000
      6     -14.5859      1.00000
      7     -14.3991      1.00000
      8     -14.3931      1.00000
      9      -4.5482      1.00000
     10      -4.1685      1.00000
     11      -3.5999      1.00000
     12      -3.4676      1.00000
     13      -3.1623      1.00000
     14      -2.9465      1.00000
     15      -2.9072      1.00000
     16      -2.7627      1.00000
     17      -2.6427      1.00000
     18      -2.3391      1.00000
     19      -1.9464      1.00000
     20      -1.6199      1.00000
     21      -1.4285      1.00000
     22      -1.0589      1.00000
     23      -0.7174      1.00000
     24      -0.7055      1.00000
     25      -0.5306      1.00000
     26      -0.2910      1.00000
     27      -0.1785      1.00000
     28      -0.1479      1.00000
     29       0.3970      1.00000
     30       0.6994      1.00000
     31       0.8343      1.00000
     32       0.8574      1.00000
     33       1.1775      1.00000
     34       1.3991      1.00000
     35       1.6912      1.00003
     36       1.7537      1.00016
     37       2.1846      0.97424
     38       2.2599      0.78879
     39       4.0675     -0.00000
     40       4.3701     -0.00000
     41       4.5552     -0.00000
     42       5.0008     -0.00000
     43       5.3793     -0.00000
     44       5.4817     -0.00000
     45       5.6363     -0.00000
     46       6.0015     -0.00000
     47       6.1379     -0.00000
     48       6.3113     -0.00000

 k-point   4 :       0.3333    0.1111    0.0000
  band No.  band energies     occupation 
      1     -16.4689      1.00000
      2     -16.2181      1.00000
      3     -15.3855      1.00000
      4     -15.0257      1.00000
      5     -14.6402      1.00000
      6     -14.6000      1.00000
      7     -14.3950      1.00000
      8     -14.3917      1.00000
      9      -4.4259      1.00000
     10      -4.2330      1.00000
     11      -3.5731      1.00000
     12      -3.4828      1.00000
     13      -3.1344      1.00000
     14      -3.0440      1.00000
     15      -2.8908      1.00000
     16      -2.8488      1.00000
     17      -2.6569      1.00000
     18      -2.5510      1.00000
     19      -1.5867      1.00000
     20      -1.5306      1.00000
     21      -1.4262      1.00000
     22      -1.1726      1.00000
     23      -0.8554      1.00000
     24      -0.8073      1.00000
     25      -0.3567      1.00000
     26      -0.2761      1.00000
     27      -0.1357      1.00000
     28      -0.0542      1.00000
     29       0.4384      1.00000
     30       0.5022      1.00000
     31       0.7695      1.00000
     32       0.9231      1.00000
     33       1.3491      1.00000
     34       1.3513      1.00000
     35       1.7589      1.00019
     36       1.8255      1.00097
     37       2.0312      1.02716
     38       2.1210      1.03041
     39       4.2246     -0.00000
     40       4.3821     -0.00000
     41       4.5573     -0.00000
     42       4.7447     -0.00000
     43       5.4070     -0.00000
     44       5.4559     -0.00000
     45       5.8493     -0.00000
     46       5.9976     -0.00000
     47       6.1364     -0.00000
     48       6.2254     -0.00000

 k-point   5 :       0.0000    0.2222    0.0000
  band No.  band energies     occupation 
      1     -16.2249      1.00000
      2     -15.6857      1.00000
      3     -15.4787      1.00000
      4     -14.7772      1.00000
      5     -14.6984      1.00000
      6     -14.6163      1.00000
      7     -14.4926      1.00000
      8     -14.4669      1.00000
      9      -4.0581      1.00000
     10      -3.7201      1.00000
     11      -3.3829      1.00000
     12      -3.3057      1.00000
     13      -3.2604      1.00000
     14      -3.1794      1.00000
     15      -3.1324      1.00000
     16      -2.7978      1.00000
     17      -2.6210      1.00000
     18      -2.3979      1.00000
     19      -1.8241      1.00000
     20      -1.8137      1.00000
     21      -1.7115      1.00000
     22      -1.1323      1.00000
     23      -1.1227      1.00000
     24      -0.9084      1.00000
     25      -0.6548      1.00000
     26      -0.4613      1.00000
     27       0.0267      1.00000
     28       0.0563      1.00000
     29       0.1718      1.00000
     30       0.4378      1.00000
     31       0.5132      1.00000
     32       0.7159      1.00000
     33       1.0396      1.00000
     34       1.1806      1.00000
     35       1.4495      1.00000
     36       1.7966      1.00049
     37       2.0104      1.02239
     38       2.0922      1.03540
     39       4.0052     -0.00000
     40       4.3054     -0.00000
     41       4.5547     -0.00000
     42       4.6483     -0.00000
     43       5.6613     -0.00000
     44       5.7593     -0.00000
     45       5.7826     -0.00000
     46       5.8005     -0.00000
     47       5.9877     -0.00000
     48       6.2397     -0.00000

 k-point   6 :       0.3333    0.2222    0.0000
  band No.  band energies     occupation 
      1     -16.1460      1.00000
      2     -15.9263      1.00000
      3     -15.2080      1.00000
      4     -14.9173      1.00000
      5     -14.6607      1.00000
      6     -14.6297      1.00000
      7     -14.4832      1.00000
      8     -14.4703      1.00000
      9      -3.9546      1.00000
     10      -3.7825      1.00000
     11      -3.3995      1.00000
     12      -3.3272      1.00000
     13      -3.2690      1.00000
     14      -3.1950      1.00000
     15      -3.0316      1.00000
     16      -2.8838      1.00000
     17      -2.6519      1.00000
     18      -2.5223      1.00000
     19      -1.7826      1.00000
     20      -1.7589      1.00000
     21      -1.5637      1.00000
     22      -1.2149      1.00000
     23      -1.0264      1.00000
     24      -1.0061      1.00000
     25      -0.4446      1.00000
     26      -0.4125      1.00000
     27      -0.1699      1.00000
     28      -0.0906      1.00000
     29       0.2243      1.00000
     30       0.3320      1.00000
     31       0.5067      1.00000
     32       0.6425      1.00000
     33       1.1389      1.00000
     34       1.2283      1.00000
     35       1.6329      1.00000
     36       1.7737      1.00028
     37       2.0123      1.02282
     38       2.0479      1.03073
     39       4.1145     -0.00000
     40       4.2875     -0.00000
     41       4.4814     -0.00000
     42       4.4941     -0.00000
     43       5.7434     -0.00000
     44       5.7733     -0.00000
     45       5.7906     -0.00000
     46       5.7969     -0.00000
     47       6.0345     -0.00000
     48       6.1680     -0.00000

 k-point   7 :       0.0000    0.3333    0.0000
  band No.  band energies     occupation 
      1     -15.7559      1.00000
      2     -15.3620      1.00000
      3     -15.1788      1.00000
      4     -14.7645      1.00000
      5     -14.7050      1.00000
      6     -14.6642      1.00000
      7     -14.6303      1.00000
      8     -14.5620      1.00000
      9      -3.8626      1.00000
     10      -3.7080      1.00000
     11      -3.5182      1.00000
     12      -3.3510      1.00000
     13      -3.0516      1.00000
     14      -2.9180      1.00000
     15      -2.8764      1.00000
     16      -2.6175      1.00000
     17      -2.4605      1.00000
     18      -2.4284      1.00000
     19      -2.3330      1.00000
     20      -1.9301      1.00000
     21      -1.6053      1.00000
     22      -1.5045      1.00000
     23      -1.0100      1.00000
     24      -0.7725      1.00000
     25      -0.7277      1.00000
     26      -0.7110      1.00000
     27      -0.3194      1.00000
     28      -0.0767      1.00000
     29       0.0589      1.00000
     30       0.2708      1.00000
     31       0.3739      1.00000
     32       0.4997      1.00000
     33       0.8193      1.00000
     34       0.8639      1.00000
     35       1.2331      1.00000
     36       1.6142      1.00000
     37       1.8466      1.00155
     38       1.8515      1.00172
     39       4.0406     -0.00000
     40       4.0732     -0.00000
     41       4.4422     -0.00000
     42       4.6447     -0.00000
     43       5.6248     -0.00000
     44       5.6777     -0.00000
     45       5.7847     -0.00000
     46       5.8667     -0.00000
     47       5.8868     -0.00000
     48       6.2478     -0.00000

 k-point   8 :       0.3333    0.3333    0.0000
  band No.  band energies     occupation 
      1     -15.6955      1.00000
      2     -15.5302      1.00000
      3     -15.0005      1.00000
      4     -14.8190      1.00000
      5     -14.7113      1.00000
      6     -14.6896      1.00000
      7     -14.6032      1.00000
      8     -14.5736      1.00000
      9      -3.8389      1.00000
     10      -3.7642      1.00000
     11      -3.4394      1.00000
     12      -3.3523      1.00000
     13      -3.0974      1.00000
     14      -3.0319      1.00000
     15      -2.8029      1.00000
     16      -2.6589      1.00000
     17      -2.4484      1.00000
     18      -2.3617      1.00000
     19      -2.2126      1.00000
     20      -2.0366      1.00000
     21      -1.6168      1.00000
     22      -1.5026      1.00000
     23      -0.9149      1.00000
     24      -0.7700      1.00000
     25      -0.7520      1.00000
     26      -0.6972      1.00000
     27      -0.3274      1.00000
     28      -0.2497      1.00000
     29       0.0938      1.00000
     30       0.2219      1.00000
     31       0.3770      1.00000
     32       0.4884      1.00000
     33       0.8254      1.00000
     34       0.8747      1.00000
     35       1.3594      1.00000
     36       1.5461      1.00000
     37       1.8896      1.00371
     38       1.8971      1.00426
     39       4.0938     -0.00000
     40       4.1053     -0.00000
     41       4.3781     -0.00000
     42       4.5010     -0.00000
     43       5.6436     -0.00000
     44       5.6810     -0.00000
     45       5.8126     -0.00000
     46       5.8467     -0.00000
     47       5.9795     -0.00000
     48       6.1679     -0.00000

 k-point   9 :       0.0000    0.4444    0.0000
  band No.  band energies     occupation 
      1     -15.2734      1.00000
      2     -15.0603      1.00000
      3     -14.9334      1.00000
      4     -14.9083      1.00000
      5     -14.7974      1.00000
      6     -14.7396      1.00000
      7     -14.7218      1.00000
      8     -14.6275      1.00000
      9      -4.2626      1.00000
     10      -3.8636      1.00000
     11      -3.6458      1.00000
     12      -3.5144      1.00000
     13      -2.7680      1.00000
     14      -2.5733      1.00000
     15      -2.5587      1.00000
     16      -2.4412      1.00000
     17      -2.3497      1.00000
     18      -2.2210      1.00000
     19      -2.0955      1.00000
     20      -1.9191      1.00000
     21      -1.5180      1.00000
     22      -1.4439      1.00000
     23      -1.0594      1.00000
     24      -1.0266      1.00000
     25      -0.7799      1.00000
     26      -0.5685      1.00000
     27      -0.4932      1.00000
     28      -0.4612      1.00000
     29      -0.1643      1.00000
     30      -0.0596      1.00000
     31       0.1007      1.00000
     32       0.4229      1.00000
     33       0.5932      1.00000
     34       0.7158      1.00000
     35       1.0869      1.00000
     36       1.4709      1.00000
     37       1.6216      1.00000
     38       1.8399      1.00134
     39       4.0550     -0.00000
     40       4.0623     -0.00000
     41       4.4200     -0.00000
     42       4.6108     -0.00000
     43       5.5540     -0.00000
     44       5.6154     -0.00000
     45       5.6630     -0.00000
     46       5.7501     -0.00000
     47       5.8607     -0.00000
     48       6.2602     -0.00000

 k-point  10 :       0.3333    0.4444    0.0000
  band No.  band energies     occupation 
      1     -15.2380      1.00000
      2     -15.1446      1.00000
      3     -14.8946      1.00000
      4     -14.8776      1.00000
      5     -14.8086      1.00000
      6     -14.7488      1.00000
      7     -14.6999      1.00000
      8     -14.6495      1.00000
      9      -4.1796      1.00000
     10      -3.9839      1.00000
     11      -3.5784      1.00000
     12      -3.5017      1.00000
     13      -2.8792      1.00000
     14      -2.7789      1.00000
     15      -2.4688      1.00000
     16      -2.3914      1.00000
     17      -2.2622      1.00000
     18      -2.2370      1.00000
     19      -2.0515      1.00000
     20      -1.9638      1.00000
     21      -1.3883      1.00000
     22      -1.3288      1.00000
     23      -1.1307      1.00000
     24      -1.0341      1.00000
     25      -0.7405      1.00000
     26      -0.6666      1.00000
     27      -0.4706      1.00000
     28      -0.4389      1.00000
     29      -0.2185      1.00000
     30      -0.1283      1.00000
     31       0.1402      1.00000
     32       0.3352      1.00000
     33       0.6498      1.00000
     34       0.6878      1.00000
     35       1.1608      1.00000
     36       1.3579      1.00000
     37       1.7223      1.00007
     38       1.8252      1.00096
     39       4.1264     -0.00000
     40       4.1759     -0.00000
     41       4.3275     -0.00000
     42       4.4742     -0.00000
     43       5.5790     -0.00000
     44       5.6051     -0.00000
     45       5.6835     -0.00000
     46       5.7299     -0.00000
     47       5.9774     -0.00000
     48       6.1741     -0.00000

 k-point  11 :       0.0000    0.0000    0.1667
  band No.  band energies     occupation 
      1     -16.6127      1.00000
      2     -16.0321      1.00000
      3     -15.7463      1.00000
      4     -14.9446      1.00000
      5     -14.6835      1.00000
      6     -14.5990      1.00000
      7     -14.4143      1.00000
      8     -14.3992      1.00000
      9      -4.6988      1.00000
     10      -4.3317      1.00000
     11      -3.6826      1.00000
     12      -3.4479      1.00000
     13      -3.1160      1.00000
     14      -2.8820      1.00000
     15      -2.8595      1.00000
     16      -2.8511      1.00000
     17      -2.4251      1.00000
     18      -2.1408      1.00000
     19      -1.9727      1.00000
     20      -1.6852      1.00000
     21      -1.5952      1.00000
     22      -0.9386      1.00000
     23      -0.6595      1.00000
     24      -0.6577      1.00000
     25      -0.3117      1.00000
     26      -0.1979      1.00000
     27      -0.0852      1.00000
     28       0.0576      1.00000
     29       0.4624      1.00000
     30       0.5836      1.00000
     31       0.8631      1.00000
     32       1.1281      1.00000
     33       1.1719      1.00000
     34       1.4976      1.00000
     35       1.5266      1.00000
     36       1.8319      1.00112
     37       2.0005      1.02012
     38       2.2788      0.72159
     39       4.1898     -0.00000
     40       4.3265     -0.00000
     41       4.3439     -0.00000
     42       5.2088     -0.00000
     43       5.2903     -0.00000
     44       5.2933     -0.00000
     45       5.6359     -0.00000
     46       6.1104     -0.00000
     47       6.2279     -0.00000
     48       6.3992     -0.00000

 k-point  12 :       0.3333    0.0000    0.1667
  band No.  band energies     occupation 
      1     -16.5262      1.00000
      2     -16.2852      1.00000
      3     -15.4498      1.00000
      4     -15.1054      1.00000
      5     -14.6457      1.00000
      6     -14.6104      1.00000
      7     -14.4092      1.00000
      8     -14.4016      1.00000
      9      -4.5878      1.00000
     10      -4.4027      1.00000
     11      -3.6330      1.00000
     12      -3.4444      1.00000
     13      -3.1992      1.00000
     14      -3.0381      1.00000
     15      -2.8735      1.00000
     16      -2.8579      1.00000
     17      -2.3620      1.00000
     18      -2.1761      1.00000
     19      -1.9388      1.00000
     20      -1.6631      1.00000
     21      -1.3892      1.00000
     22      -0.9492      1.00000
     23      -0.8031      1.00000
     24      -0.6926      1.00000
     25      -0.3740      1.00000
     26      -0.2688      1.00000
     27       0.1611      1.00000
     28       0.1847      1.00000
     29       0.3893      1.00000
     30       0.4606      1.00000
     31       0.8995      1.00000
     32       1.2599      1.00000
     33       1.2882      1.00000
     34       1.4351      1.00000
     35       1.4860      1.00000
     36       1.7289      1.00008
     37       1.9879      1.01738
     38       2.1771      0.98504
     39       4.2436     -0.00000
     40       4.3112     -0.00000
     41       4.5149     -0.00000
     42       4.9259     -0.00000
     43       5.2282     -0.00000
     44       5.2690     -0.00000
     45       5.9633     -0.00000
     46       6.1355     -0.00000
     47       6.1961     -0.00000
     48       6.2821     -0.00000

 k-point  13 :       0.0000    0.1111    0.1667
  band No.  band energies     occupation 
      1     -16.4949      1.00000
      2     -15.9385      1.00000
      3     -15.6600      1.00000
      4     -14.9014      1.00000
      5     -14.6906      1.00000
      6     -14.6086      1.00000
      7     -14.4411      1.00000
      8     -14.4291      1.00000
      9      -4.5203      1.00000
     10      -4.1665      1.00000
     11      -3.5962      1.00000
     12      -3.3825      1.00000
     13      -3.1712      1.00000
     14      -2.9534      1.00000
     15      -2.9103      1.00000
     16      -2.7566      1.00000
     17      -2.6605      1.00000
     18      -2.3896      1.00000
     19      -1.9617      1.00000
     20      -1.5988      1.00000
     21      -1.2367      1.00000
     22      -1.0277      1.00000
     23      -0.7504      1.00000
     24      -0.7071      1.00000
     25      -0.5741      1.00000
     26      -0.2733      1.00000
     27      -0.1272      1.00000
     28      -0.0204      1.00000
[...]
     17      -2.3666      1.00000
     18      -2.3257      1.00000
     19      -2.1802      1.00000
     20      -2.1416      1.00000
     21      -1.6214      1.00000
     22      -1.5605      1.00000
     23      -1.0760      1.00000
     24      -0.9479      1.00000
     25      -0.6724      1.00000
     26      -0.6040      1.00000
     27      -0.3705      1.00000
     28      -0.1185      1.00000
     29       0.0165      1.00000
     30       0.2654      1.00000
     31       0.4697      1.00000
     32       0.6275      1.00000
     33       0.9455      1.00000
     34       1.0133      1.00000
     35       1.2723      1.00000
     36       1.3510      1.00000
     37       1.7118      1.00078
     38       1.7875      1.00386
     39       4.0277     -0.00000
     40       4.1321     -0.00000
     41       4.3904     -0.00000
     42       4.4610     -0.00000
     43       5.4575     -0.00000
     44       5.5044     -0.00000
     45       5.6223     -0.00000
     46       5.6301     -0.00000
     47       5.8714     -0.00000
     48       5.9021     -0.00000

 k-point  39 :       0.0000    0.4444    0.5000
  band No.  band energies     occupation 
      1     -15.1954      1.00000
      2     -15.1752      1.00000
      3     -14.9589      1.00000
      4     -14.9464      1.00000
      5     -14.8092      1.00000
      6     -14.7801      1.00000
      7     -14.7638      1.00000
      8     -14.6951      1.00000
      9      -4.3985      1.00000
     10      -4.1939      1.00000
     11      -3.7906      1.00000
     12      -3.3758      1.00000
     13      -3.1146      1.00000
     14      -2.9730      1.00000
     15      -2.8096      1.00000
     16      -2.6168      1.00000
     17      -2.4382      1.00000
     18      -2.3116      1.00000
     19      -2.0687      1.00000
     20      -1.9968      1.00000
     21      -1.5344      1.00000
     22      -1.3196      1.00000
     23      -1.1108      1.00000
     24      -1.0956      1.00000
     25      -0.8954      1.00000
     26      -0.6968      1.00000
     27      -0.5896      1.00000
     28      -0.5019      1.00000
     29      -0.4653      1.00000
     30       0.1789      1.00000
     31       0.4537      1.00000
     32       0.6687      1.00000
     33       0.7919      1.00000
     34       1.0915      1.00000
     35       1.3492      1.00000
     36       1.4207      1.00000
     37       1.5783      1.00002
     38       1.7956      1.00449
     39       3.9773     -0.00000
     40       4.1319     -0.00000
     41       4.2971     -0.00000
     42       4.6848     -0.00000
     43       5.3751     -0.00000
     44       5.3794     -0.00000
     45       5.5908     -0.00000
     46       5.6340     -0.00000
     47       5.7352     -0.00000
     48       5.8168     -0.00000

 k-point  40 :       0.3333    0.4444    0.5000
  band No.  band energies     occupation 
      1     -15.1900      1.00000
      2     -15.1799      1.00000
      3     -14.9579      1.00000
      4     -14.9520      1.00000
      5     -14.8035      1.00000
      6     -14.7910      1.00000
      7     -14.7407      1.00000
      8     -14.7088      1.00000
      9      -4.3519      1.00000
     10      -4.2502      1.00000
     11      -3.7488      1.00000
     12      -3.5791      1.00000
     13      -2.9675      1.00000
     14      -2.7799      1.00000
     15      -2.7669      1.00000
     16      -2.6384      1.00000
     17      -2.5208      1.00000
     18      -2.3341      1.00000
     19      -2.0298      1.00000
     20      -1.9602      1.00000
     21      -1.7179      1.00000
     22      -1.5502      1.00000
     23      -1.1639      1.00000
     24      -1.1039      1.00000
     25      -0.7787      1.00000
     26      -0.5953      1.00000
     27      -0.5437      1.00000
     28      -0.4309      1.00000
     29      -0.3449      1.00000
     30       0.0009      1.00000
     31       0.5474      1.00000
     32       0.7258      1.00000
     33       0.7742      1.00000
     34       0.9751      1.00000
     35       1.4125      1.00000
     36       1.4584      1.00000
     37       1.6029      1.00004
     38       1.7058      1.00068
     39       4.0146     -0.00000
     40       4.1331     -0.00000
     41       4.2957     -0.00000
     42       4.5264     -0.00000
     43       5.4180     -0.00000
     44       5.4215     -0.00000
     45       5.5832     -0.00000
     46       5.6077     -0.00000
     47       5.7811     -0.00000
     48       5.8140     -0.00000


--------------------------------------------------------------------------------------------------------


 soft charge-density along one line, spin component           1
         0         1         2         3         4         5         6         7         8         9
 total charge-density along one line
 
 soft charge-density along one line, spin component           2
         0         1         2         3         4         5         6         7         8         9
 total charge-density along one line
 
 pseudopotential strength for first ion, spin component:           1
 -9.769  -0.877  -0.000   0.000   0.000 -10.296  -0.898  -0.000
 -0.877  -9.751  -0.000   0.000  -0.000  -0.898 -10.280  -0.000
 -0.000  -0.000 -10.512   0.288   0.158  -0.000  -0.000 -11.060
  0.000   0.000   0.288  -9.415   0.731   0.000   0.000   0.295
  0.000  -0.000   0.158   0.731 -10.199   0.000  -0.000   0.163
-10.296  -0.898  -0.000   0.000   0.000 -10.806  -0.924  -0.000
 -0.898 -10.280  -0.000   0.000  -0.000  -0.924 -10.790  -0.000
 -0.000  -0.000 -11.060   0.295   0.163  -0.000  -0.000 -11.594
  0.000   0.000   0.295  -9.936   0.748   0.000   0.000   0.304
  0.000  -0.000   0.163   0.748 -10.737   0.000  -0.000   0.168
 -0.000  -0.000  -0.005  -0.001  -0.005  -0.000  -0.000  -0.006
 -0.000  -0.000  -0.010  -0.002  -0.010  -0.000  -0.000  -0.010
 -0.008  -0.001  -0.000   0.000  -0.000  -0.008  -0.001  -0.000
  0.000   0.000   0.000  -0.003  -0.000   0.000   0.000   0.000
  0.000   0.000   0.008  -0.001  -0.009   0.000   0.000   0.008
 -0.009  -0.002  -0.000   0.000  -0.000  -0.009  -0.002  -0.000
  0.000   0.000   0.000  -0.004   0.000   0.000   0.000   0.000
  0.000   0.000   0.009  -0.002  -0.010   0.000   0.000   0.009
 pseudopotential strength for first ion, spin component:           2
 -6.158   0.644  -0.000   0.000   0.000  -6.664   0.652  -0.000
  0.644  -6.112  -0.000   0.000  -0.000   0.652  -6.618  -0.000
 -0.000  -0.000  -5.551  -0.213  -0.098  -0.000  -0.000  -6.051
  0.000   0.000  -0.213  -6.250  -0.556   0.000   0.000  -0.216
  0.000  -0.000  -0.098  -0.556  -5.831   0.000  -0.000  -0.098
 -6.664   0.652  -0.000   0.000   0.000  -7.138   0.664  -0.000
  0.652  -6.618  -0.000   0.000  -0.000   0.664  -7.092  -0.000
 -0.000  -0.000  -6.051  -0.216  -0.098  -0.000  -0.000  -6.516
  0.000   0.000  -0.216  -6.758  -0.564   0.000   0.000  -0.220
  0.000  -0.000  -0.098  -0.564  -6.333   0.000  -0.000  -0.099
 -0.000  -0.000  -0.014  -0.000  -0.007  -0.000  -0.000  -0.014
 -0.000  -0.000  -0.027  -0.001  -0.014  -0.000  -0.000  -0.028
 -0.003   0.003  -0.000   0.000  -0.000  -0.003   0.003  -0.000
  0.000   0.000  -0.002  -0.005  -0.001   0.000   0.000  -0.001
  0.000   0.000  -0.000   0.001  -0.002   0.000   0.000  -0.000
 -0.002   0.003  -0.000   0.000  -0.000  -0.003   0.003  -0.000
  0.000   0.000  -0.002  -0.006  -0.001   0.000   0.000  -0.002
  0.000   0.000  -0.001   0.001  -0.002   0.000   0.000  -0.001
 total augmentation occupancy for first ion, spin component:           1
  6.318   2.394   0.000   0.000   0.000  -5.490  -0.935  -0.000  -0.000  -0.000   0.000  -0.000   0.068   0.000  -0.000  -0.010
  2.394   6.414   0.000   0.000   0.000  -0.947  -5.547   0.000  -0.000   0.000  -0.000  -0.000   0.168   0.000   0.000  -0.017
  0.000  -0.000   8.415  -0.567  -0.474  -0.000   0.000  -6.208   0.081   0.133   0.556  -0.095  -0.000  -0.092  -0.231  -0.000
  0.000  -0.000  -0.567   5.147  -1.590  -0.000   0.000   0.087  -4.786   0.384  -0.311   0.040  -0.000  -0.130  -0.050  -0.000
  0.000   0.000  -0.474  -1.590   7.671  -0.000  -0.000   0.130   0.362  -6.171   0.327  -0.064   0.000  -0.051   0.139  -0.000
 -5.490  -0.947  -0.000  -0.000  -0.000   5.696  -0.308  -0.000   0.000  -0.000  -0.000  -0.000  -0.072  -0.000   0.000   0.006
 -0.935  -5.547   0.000   0.000  -0.000  -0.308   5.712   0.000   0.000   0.000   0.000  -0.000  -0.163  -0.000  -0.000   0.017
 -0.000  -0.000  -6.208   0.087   0.130  -0.000   0.000   5.229   0.334   0.151  -0.562   0.096   0.000   0.092   0.231   0.000
 -0.000  -0.000   0.081  -4.786   0.362   0.000   0.000   0.334   5.370   0.683   0.311  -0.048   0.000   0.137   0.042  -0.000
 -0.000   0.000   0.133   0.384  -6.171   0.000   0.000   0.151   0.683   5.794  -0.333   0.064   0.000   0.049  -0.137   0.000
  0.000  -0.000   0.556  -0.311   0.327  -0.000   0.000  -0.562   0.311  -0.333   2.762  -0.421   0.000   0.001  -0.025  -0.000
 -0.000  -0.000  -0.095   0.040  -0.064   0.000  -0.000   0.096  -0.048   0.064  -0.421   0.089   0.000  -0.001   0.004   0.000
  0.068   0.168   0.000   0.000  -0.000  -0.072  -0.163   0.000  -0.000  -0.000   0.000  -0.000   0.409   0.000   0.000  -0.035
 -0.000   0.000  -0.092  -0.130  -0.051   0.000  -0.000   0.092   0.137   0.049   0.001  -0.001   0.000   0.345   0.012  -0.000
 -0.000   0.000  -0.231  -0.050   0.139   0.000  -0.000   0.231   0.042  -0.137  -0.025   0.004   0.000   0.012   0.374   0.000
 -0.010  -0.017  -0.000  -0.000  -0.000   0.006   0.017   0.000   0.000  -0.000   0.000  -0.000  -0.035  -0.000   0.000   0.003
 -0.000  -0.000   0.008   0.010   0.007   0.000   0.000  -0.009  -0.013  -0.007  -0.000   0.000  -0.000  -0.029  -0.001   0.000
  0.000  -0.000   0.031   0.008  -0.023   0.000   0.000  -0.026  -0.007   0.018   0.001  -0.001   0.000  -0.001  -0.032   0.000
 total augmentation occupancy for first ion, spin component:           2
  3.665   4.040   0.000   0.000   0.000  -2.107  -2.954  -0.000  -0.000  -0.000   0.000  -0.000   0.035   0.000   0.000  -0.008
  4.040   3.838  -0.000   0.000   0.000  -2.968  -2.242   0.000   0.000  -0.000   0.000  -0.000   0.079  -0.000   0.000  -0.007
  0.000  -0.000   7.413  -1.198  -1.040  -0.000  -0.000  -4.832   0.850   0.791   0.138  -0.008   0.000  -0.033  -0.108  -0.000
  0.000   0.000  -1.198   2.080  -3.153  -0.000   0.000   0.864  -0.895   2.292  -0.125  -0.002   0.000  -0.038  -0.018  -0.000
 -0.000   0.000  -1.040  -3.153   5.505  -0.000  -0.000   0.792   2.262  -3.428   0.040  -0.007   0.000   0.001   0.067   0.000
 -2.107  -2.968  -0.000  -0.000  -0.000   1.190   2.290   0.000   0.000   0.000  -0.000   0.000  -0.022   0.000   0.000   0.004
 -2.954  -2.242   0.000   0.000   0.000   2.290   1.296   0.000   0.000   0.000   0.000   0.000  -0.059   0.000  -0.000   0.005
  0.000   0.000  -4.832   0.864   0.792   0.000   0.000   3.261  -0.651  -0.615  -0.092   0.002   0.000   0.025   0.076   0.000
 -0.000  -0.000   0.850  -0.895   2.262   0.000   0.000  -0.651   0.231  -1.748   0.086   0.000   0.000   0.028   0.018   0.000
  0.000   0.000   0.791   2.292  -3.428  -0.000  -0.000  -0.615  -1.748   2.194  -0.022   0.002  -0.000   0.001  -0.047   0.000
  0.000   0.000   0.138  -0.125   0.040  -0.000   0.000  -0.092   0.086  -0.022  -0.275   0.112   0.000   0.002   0.005   0.000
 -0.000  -0.000  -0.008  -0.002  -0.007   0.000   0.000   0.002   0.000   0.002   0.112  -0.021   0.000   0.000  -0.000   0.000
  0.035   0.079   0.000   0.000   0.000  -0.022  -0.059   0.000   0.000   0.000   0.000   0.000   0.018   0.000   0.000   0.000
  0.000   0.000  -0.033  -0.038   0.001   0.000   0.000   0.025   0.028   0.001   0.002   0.000   0.000   0.013   0.001  -0.000
  0.000   0.000  -0.108  -0.018   0.067   0.000  -0.000   0.076   0.018  -0.047   0.005  -0.000   0.000   0.001   0.011   0.000
 -0.008  -0.007  -0.000  -0.000   0.000   0.004   0.005   0.000   0.000   0.000  -0.000   0.000   0.000  -0.000   0.000  -0.000
  0.000  -0.000   0.002  -0.001   0.002   0.000   0.000  -0.001  -0.000  -0.001   0.000  -0.000   0.000   0.000  -0.000  -0.000
 -0.000  -0.000   0.018   0.005  -0.016   0.000   0.000  -0.012  -0.003   0.010  -0.001   0.000   0.000  -0.000   0.000   0.000


------------------------ aborting loop because EDIFF is reached ----------------------------------------


    CHARGE:  cpu time    0.07: real time    0.07
    FORLOC:  cpu time    0.00: real time    0.00
    FORNL :  cpu time    0.36: real time    0.36
    STRESS:  cpu time    0.47: real time    0.47
    FORCOR:  cpu time    0.01: real time    0.01
    FORHAR:  cpu time    0.00: real time    0.00
    MIXING:  cpu time    0.00: real time    0.00

  FORCE on cell =-STRESS in cart. coord.  units (eV):
  Direction    XX          YY          ZZ          XY          YZ          ZX
  --------------------------------------------------------------------------------------
  Alpha Z   313.42212   313.42212   313.42212
  Ewald   -1268.53850  -858.28473 -1994.24810    -0.00000     0.00000     0.00000
  Hartree   521.28384   726.25792    97.74759    -0.00000    -0.00000    -0.00000
  E(xc)    -369.91740  -370.31464  -369.51744     0.00000     0.00000     0.00000
  Local    -425.47578 -1016.65599   701.86489    -0.00000     0.00000     0.00000
  n-local  -258.97597  -252.73911  -262.77105     0.00405    -0.04252     0.00781
  augment   175.14559   171.53757   177.65241    -0.00000    -0.00000     0.00000
  Kinetic  1313.17450  1286.76904  1335.67382    -0.02954    -0.63194     0.02959
  Fock        0.00000     0.00000     0.00000     0.00000     0.00000     0.00000
  -------------------------------------------------------------------------------------
  Total       0.11841    -0.00783    -0.17575     0.00000     0.00000     0.00000
  in kB       1.56248    -0.10334    -2.31902     0.00000     0.00000     0.00000
  external pressure =       -0.29 kB  Pullay stress =        0.00 kB


 VOLUME and BASIS-vectors are now :
 -----------------------------------------------------------------------------
  energy-cutoff  :      520.00
  volume of cell :      121.42
      direct lattice vectors                 reciprocal lattice vectors
     9.227624058  0.000000000  0.000000000     0.108370258  0.000000000  0.000000000
     0.000000000  2.880523881  0.000000000     0.000000000  0.347159073  0.000000000
     0.000000000 -0.000000000  4.568121979     0.000000000 -0.000000000  0.218908340

  length of vectors
     9.227624058  2.880523881  4.568121979     0.108370258  0.347159073  0.218908340


 FORCES acting on ions
    electron-ion (+dipol)            ewald-force                    non-local-force                 convergence-correction
 -----------------------------------------------------------------------------------------------
   -.463E+02 -.119E-10 -.957E+01   0.470E+02 0.963E-14 0.957E+01   -.786E+00 0.326E-17 -.368E-01   -.432E-03 0.271E-12 -.187E-02
   -.463E+02 0.111E-10 0.957E+01   0.470E+02 -.879E-14 -.957E+01   -.786E+00 -.377E-17 0.368E-01   -.432E-03 0.139E-11 0.187E-02
   0.463E+02 -.137E-10 0.957E+01   -.470E+02 -.162E-13 -.957E+01   0.786E+00 -.348E-17 0.368E-01   0.432E-03 -.196E-12 0.187E-02
   0.463E+02 0.120E-10 -.957E+01   -.470E+02 0.228E-14 0.957E+01   0.786E+00 0.372E-17 -.368E-01   0.432E-03 -.341E-12 -.187E-02
   0.286E+02 -.201E-10 0.403E+02   -.298E+02 -.286E-14 -.447E+02   0.121E+01 -.123E-17 0.441E+01   0.382E-02 -.320E-13 0.270E-02
   0.286E+02 -.302E-10 -.403E+02   -.298E+02 0.121E-13 0.447E+02   0.121E+01 -.202E-18 -.441E+01   0.382E-02 0.243E-11 -.270E-02
   -.286E+02 -.204E-10 -.403E+02   0.298E+02 0.133E-14 0.447E+02   -.121E+01 -.210E-17 -.441E+01   -.382E-02 0.370E-12 -.270E-02
   -.286E+02 -.232E-10 0.403E+02   0.298E+02 -.136E-13 -.447E+02   -.121E+01 -.222E-17 0.441E+01   -.382E-02 -.228E-12 0.270E-02
   -.248E+02 -.277E-10 -.205E+03   0.282E+02 -.438E-14 0.230E+03   -.334E+01 0.421E-17 -.257E+02   0.159E-02 0.824E-12 -.838E-02
   -.248E+02 -.208E-10 0.205E+03   0.282E+02 0.429E-14 -.230E+03   -.334E+01 -.130E-17 0.257E+02   0.159E-02 0.600E-12 0.838E-02
   0.248E+02 -.240E-10 0.205E+03   -.282E+02 0.628E-14 -.230E+03   0.334E+01 -.193E-17 0.257E+02   -.159E-02 -.892E-12 0.838E-02
   0.248E+02 -.188E-10 -.205E+03   -.282E+02 -.232E-14 0.230E+03   0.334E+01 0.490E-17 -.257E+02   -.159E-02 -.442E-12 -.838E-02
 -----------------------------------------------------------------------------------------------
   -.667E-11 -.188E-09 -.665E-10   0.320E-13 -.123E-13 0.284E-13   -.888E-15 -.144E-18 0.000E+00   -.362E-12 0.375E-11 -.380E-11
 
 
 POSITION                                       TOTAL-FORCE (eV/Angst)
 -----------------------------------------------------------------------------------
      1.24823      0.72013      0.14928        -0.035818      0.000000     -0.029246
      5.86205      0.72013      2.13478        -0.035818     -0.000000      0.029246
      7.97939      2.16039      4.41884         0.035818     -0.000000      0.029246
      3.36558      2.16039      2.43334         0.035818      0.000000     -0.029246
      2.56743      0.72013      1.50099         0.021455     -0.000000      0.010104
      7.18124      0.72013      0.78307         0.021455      0.000000     -0.010104
      6.66019      2.16039      3.06713        -0.021455      0.000000     -0.010104
      2.04638      2.16039      3.78505        -0.021455     -0.000000      0.010104
      4.30802      0.72013      3.26062         0.007995     -0.000000      0.031239
      8.92183      0.72013      3.59156         0.007995      0.000000     -0.031239
      4.91960      2.16039      1.30750        -0.007995      0.000000     -0.031239
      0.30579      2.16039      0.97656        -0.007995     -0.000000      0.031239
 -----------------------------------------------------------------------------------
    total drift:                               -0.000000     -0.000000     -0.000000


--------------------------------------------------------------------------------------------------------



  FREE ENERGIE OF THE ION-ELECTRON SYSTEM (eV)
  ---------------------------------------------------
  free  energy   TOTEN  =       -89.48995017 eV

  energy  without entropy=      -89.50316108  energy(sigma->0) =      -89.49435381
 
 d Force =-0.3625331E-04[-0.503E-04,-0.222E-04]  d Energy =-0.1312398E-04-0.231E-04
 d Force = 0.1233501E+00[ 0.123E+00, 0.123E+00]  d Ewald  = 0.4704211E+00-0.347E+00


--------------------------------------------------------------------------------------------------------


    POTLOK:  cpu time    0.02: real time    0.02


--------------------------------------------------------------------------------------------------------




--------------------------------------------------------------------------------------------------------


  
 reached required accuracy - stopping structural energy minimisation
     LOOP+:  cpu time    4.17: real time    4.93
    4ORBIT:  cpu time    0.00: real time    0.00

 total amount of memory used by VASP on root node    48225. kBytes
========================================================================

   base      :      30000. kBytes
   nonl-proj :       9838. kBytes
   fftplans  :        438. kBytes
   grid      :       1098. kBytes
   one-center:         93. kBytes
   wavefun   :       6758. kBytes
 
  
  
 General timing and accounting informations for this job:
 ========================================================
  
                  Total CPU time used (sec):      163.577
                            User time (sec):      162.729
                          System time (sec):        0.848
                         Elapsed time (sec):      178.437
  
                   Maximum memory used (kb):       98744.
                   Average memory used (kb):           0.
  
                          Minor page faults:        16939
                          Major page faults:            0
                 Voluntary context switches:        10336
