 vasp.5.3.3 18Dez12 (build May 12 2016 12:04:25) complex                        
  
 executed on             LinuxIFC date 2019.05.07  15:59:21
 running on   16 total cores
 distrk:  each k-point on   16 cores,    1 groups
 distr:  one band on NCORES_PER_BAND=   2 cores,    8 groups


--------------------------------------------------------------------------------------------------------


 INCAR:
 POTCAR:   PAW_PBE O_s 07Sep2000                  
 POTCAR:   PAW_PBE Mn 06Sep2000                   
 POTCAR:   PAW_PBE O_s 07Sep2000                  
  local pseudopotential read in
  atomic valenz-charges read in
  non local Contribution for L=           0  read in
    real space projection operators read in
  non local Contribution for L=           0  read in
    real space projection operators read in
  non local Contribution for L=           1  read in
    real space projection operators read in
  non local Contribution for L=           1  read in
    real space projection operators read in
    PAW grid and wavefunctions read in
 
   number of l-projection  operators is LMAX  =           4
   number of lm-projection operators is LMMAX =           8
 
 POTCAR:   PAW_PBE Mn 06Sep2000                   
  local pseudopotential read in
  partial core-charges read in
  atomic valenz-charges read in
  non local Contribution for L=           2  read in
    real space projection operators read in
  non local Contribution for L=           2  read in
    real space projection operators read in
  non local Contribution for L=           0  read in
    real space projection operators read in
  non local Contribution for L=           0  read in
    real space projection operators read in
  non local Contribution for L=           1  read in
    real space projection operators read in
  non local Contribution for L=           1  read in
    real space projection operators read in
    PAW grid and wavefunctions read in
 
   number of l-projection  operators is LMAX  =           6
   number of lm-projection operators is LMMAX =          18
 

 ----------------------------------------------------------------------------- 
|                                                                             |
|  ADVICE TO THIS USER RUNNING 'VASP/VAMP'   (HEAR YOUR MASTER'S VOICE ...):  |
|                                                                             |
|      You have a (more or less) 'large supercell' and for larger cells       |
|      it might be more efficient to use real space projection operators      |
|      So try LREAL= Auto  in the INCAR   file.                               |
|      Mind: If you want to do a very accurate calculations keep the          |
|      reciprocal projection scheme          (i.e. LREAL=.FALSE.)             |
|                                                                             |
 ----------------------------------------------------------------------------- 

 PAW_PBE O_s 07Sep2000                  :
 energy of atom  1       EATOM= -432.2909
 kinetic energy error for atom=    0.0182 (will be added to EATOM!!)
 PAW_PBE Mn 06Sep2000                   :
 energy of atom  2       EATOM= -416.8732
 kinetic energy error for atom=    0.0155 (will be added to EATOM!!)
 
 
 POSCAR: (Mn O2)12  (P1) ~ alpha (VASP)          
  positions in direct lattice
  velocities in cartesian coordinates
  No initial velocities read in
 exchange correlation table for  LEXCH =        8
   RHO(1)=    0.500       N(1)  =     2000
   RHO(2)=  100.500       N(2)  =     4000
 


--------------------------------------------------------------------------------------------------------


 ion  position               nearest neighbor table
   1  0.797  0.000  0.448-  33 1.97  33 1.97  25 2.02
   2  0.203  0.000  0.552-  32 1.97  32 1.97  26 2.02
   3  0.203  0.000  0.216-  31 1.97  31 1.97  27 2.02
   4  0.845  0.000  0.232-  36 1.97  36 1.97  28 2.02
   5  0.845  0.000  0.568-  35 1.97  35 1.97  29 2.02
   6  0.155  0.000  0.432-  34 1.97  34 1.97  30 2.02
   7  0.297  0.500  0.279-  27 1.97  27 1.97  31 2.02
   8  0.297  0.500  0.616-  26 1.97  26 1.97  32 2.02
   9  0.703  0.500  0.384-  25 1.97  25 1.97  33 2.02
  10  0.345  0.500  0.400-  30 1.97  30 1.97  34 2.02
  11  0.655  0.500  0.600-  29 1.97  29 1.97  35 2.02
  12  0.655  0.500  0.263-  28 1.97  28 1.97  36 2.02
  13  0.541  0.000  0.444-  33 1.92  33 1.92  30 1.99
  14  0.459  0.000  0.556-  32 1.92  32 1.92  29 1.99
  15  0.459  0.000  0.219-  31 1.92  31 1.92  28 1.99
  16  0.835  0.000  0.318-  36 1.92  36 1.92  25 1.99
  17  0.165  0.000  0.682-  26 1.99
  18  0.835  0.000  0.654-  35 1.92  35 1.92
  19  0.165  0.000  0.346-  34 1.92  34 1.92  27 1.99
  20  0.041  0.500  0.276-  27 1.92  27 1.92  36 1.99
  21  0.041  0.500  0.613-  26 1.92  26 1.92  35 1.99
  22  0.959  0.500  0.387-  25 1.92  25 1.92  34 1.99
  23  0.335  0.500  0.486-  30 1.92  30 1.92  32 1.99
  24  0.665  0.500  0.514-  29 1.92  29 1.92  33 1.99
  25  0.835  0.000  0.383-  22 1.92  22 1.92   9 1.97   9 1.97  16 1.99   1 2.02  33 3.02  33 3.02

  26  0.165  0.000  0.617-  21 1.92  21 1.92   8 1.97   8 1.97  17 1.99   2 2.02  32 3.02  32 3.02

  27  0.165  0.000  0.280-  20 1.92  20 1.92   7 1.97   7 1.97  19 1.99   3 2.02  31 3.02  31 3.02

  28  0.652  0.000  0.219-  12 1.97  12 1.97  15 1.99   4 2.02  36 3.02  36 3.02
  29  0.652  0.000  0.556-  24 1.92  24 1.92  11 1.97  11 1.97  14 1.99   5 2.02  35 3.02  35 3.02

  30  0.348  0.000  0.444-  23 1.92  23 1.92  10 1.97  10 1.97  13 1.99   6 2.02  34 3.02  34 3.02

  31  0.335  0.500  0.215-  15 1.92  15 1.92   3 1.97   3 1.97   7 2.02  27 3.02  27 3.02
  32  0.335  0.500  0.551-  14 1.92  14 1.92   2 1.97   2 1.97  23 1.99   8 2.02  26 3.02  26 3.02

  33  0.665  0.500  0.449-  13 1.92  13 1.92   1 1.97   1 1.97  24 1.99   9 2.02  25 3.02  25 3.02

  34  0.152  0.500  0.387-  19 1.92  19 1.92   6 1.97   6 1.97  22 1.99  10 2.02  30 3.02  30 3.02

  35  0.848  0.500  0.613-  18 1.92  18 1.92   5 1.97   5 1.97  21 1.99  11 2.02  29 3.02  29 3.02

  36  0.848  0.500  0.276-  16 1.92  16 1.92   4 1.97   4 1.97  20 1.99  12 2.02  28 3.02  28 3.02

 
  LATTYP: Found a simple orthorhombic cell.
 ALAT       =     2.8540000000
 B/A-ratio  =     3.6117729502
 C/A-ratio  =    10.7274001402
  
  Lattice vectors:
  
 A1 = (   0.0000000000,  -2.8540000000,   0.0000000000)
 A2 = ( -10.3080000000,   0.0000000000,   0.0000000000)
 A3 = (   0.0000000000,   0.0000000000, -30.6160000000)


Analysis of symmetry for initial positions (statically):
=====================================================================
 Subroutine PRICEL returns:
 Original cell was already a primitive cell.
 

 Routine SETGRP: Setting up the symmetry group for a 
 simple orthorhombic supercell.


 Subroutine GETGRP returns: Found  2 space group operations
 (whereof  2 operations were pure point group operations)
 out of a pool of  8 trial point group operations.


The static configuration has the point symmetry C_1h.


Analysis of symmetry for dynamics (positions and initial velocities):
=====================================================================
 Subroutine PRICEL returns:
 Original cell was already a primitive cell.
 

 Routine SETGRP: Setting up the symmetry group for a 
 simple orthorhombic supercell.


 Subroutine GETGRP returns: Found  2 space group operations
 (whereof  2 operations were pure point group operations)
 out of a pool of  8 trial point group operations.


The dynamic configuration has the point symmetry C_1h.


Analysis of constrained symmetry for selective dynamics:
=====================================================================
 Subroutine PRICEL returns:
 Original cell was already a primitive cell.
 

 Routine SETGRP: Setting up the symmetry group for a 
 simple orthorhombic supercell.


 Subroutine GETGRP returns: Found  2 space group operations
 (whereof  2 operations were pure point group operations)
 out of a pool of  8 trial point group operations.


The constrained configuration has the point symmetry C_1h.


Analysis of magnetic symmetry:
=====================================================================

 Subroutine MAGSYM returns: Found  2 space group operations
 (whereof  2 operations were pure point group operations)
 out of a pool of  2 trial space group operations
 (whereof  2 operations were pure point group operations)
 and found also     1 'primitive' translations


The magnetic configuration has the point symmetry C_1h.


 irot  :   1
 --------------------------------------------------------------------
 isymop:   1   0   0
           0   1   0
           0   0   1

 gtrans:     0.0000000     0.0000000     0.0000000

 ptrans:     0.0000000     0.0000000     0.0000000
 rotmap:
 (   1->   1)  (   2->   2)  (   3->   3)  (   4->   4)  (   5->   5) 
 (   6->   6)  (   7->   7)  (   8->   8)  (   9->   9)  (  10->  10) 
 (  11->  11)  (  12->  12)  (  13->  13)  (  14->  14)  (  15->  15) 
 (  16->  16)  (  17->  17)  (  18->  18)  (  19->  19)  (  20->  20) 
 (  21->  21)  (  22->  22)  (  23->  23)  (  24->  24)  (  25->  25) 
 (  26->  26)  (  27->  27)  (  28->  28)  (  29->  29)  (  30->  30) 
 (  31->  31)  (  32->  32)  (  33->  33)  (  34->  34)  (  35->  35) 
 (  36->  36) 


 irot  :   2
 --------------------------------------------------------------------
 isymop:   1   0   0
           0  -1   0
           0   0   1

 gtrans:     0.0000000     0.0000000     0.0000000

 ptrans:     0.0000000     0.0000000     0.0000000
 rotmap:
 (   1->   1)  (   2->   2)  (   3->   3)  (   4->   4)  (   5->   5) 
 (   6->   6)  (   7->   7)  (   8->   8)  (   9->   9)  (  10->  10) 
 (  11->  11)  (  12->  12)  (  13->  13)  (  14->  14)  (  15->  15) 
 (  16->  16)  (  17->  17)  (  18->  18)  (  19->  19)  (  20->  20) 
 (  21->  21)  (  22->  22)  (  23->  23)  (  24->  24)  (  25->  25) 
 (  26->  26)  (  27->  27)  (  28->  28)  (  29->  29)  (  30->  30) 
 (  31->  31)  (  32->  32)  (  33->  33)  (  34->  34)  (  35->  35) 
 (  36->  36) 
 
 
 KPOINTS: Automatic mesh                          

Automatic generation of k-mesh.
Space group operators:
 irot       det(A)        alpha          n_x          n_y          n_z        tau_x        tau_y        tau_z
    1     1.000000     0.000000     1.000000     0.000000     0.000000     0.000000     0.000000     0.000000
    2    -1.000000   180.000000     0.000000     1.000000     0.000000     0.000000     0.000000     0.000000
 
 Subroutine IBZKPT returns following result:
 ===========================================
 
 Found      2 irreducible k-points:
 
 Following reciprocal coordinates:
            Coordinates               Weight
  0.000000  0.000000  0.000000      1.000000
  0.000000  0.500000  0.000000      1.000000
 
 Following cartesian coordinates:
            Coordinates               Weight
  0.000000  0.000000  0.000000      1.000000
  0.000000  0.175193  0.000000      1.000000
 


--------------------------------------------------------------------------------------------------------




 Dimension of arrays:
   k-points           NKPTS =      2   k-points in BZ     NKDIM =      2   number of bands    NBANDS=    136
   number of dos      NEDOS =    301   number of ions     NIONS =     36
   non local maximal  LDIM  =      6   non local SUM 2l+1 LMDIM =     18
   total plane-waves  NPLWV =  96768
   max r-space proj   IRMAX =      1   max aug-charges    IRDMAX=   4149
   dimension x,y,z NGX =    48 NGY =   14 NGZ =  144
   dimension x,y,z NGXF=    96 NGYF=   28 NGZF=  288
   support grid    NGXF=    96 NGYF=   28 NGZF=  288
   ions per type =              24  12
 NGX,Y,Z   is equivalent  to a cutoff of   7.74,  8.16,  7.82 a.u.
 NGXF,Y,Z  is equivalent  to a cutoff of  15.48, 16.31, 15.64 a.u.


 I would recommend the setting:
   dimension x,y,z NGX =    48 NGY =   13 NGZ =  144
 SYSTEM =  (Mn O2)12  (P1) ~ alpha (VASP)          
 POSCAR =  (Mn O2)12  (P1) ~ alpha (VASP)          

 Startparameter for this run:
   NWRITE =      1    write-flag & timer
   PREC   = normal    normal or accurate (medium, high low for compatibility)
   ISTART =      0    job   : 0-new  1-cont  2-samecut
   ICHARG =      2    charge: 1-file 2-atom 10-const
   ISPIN  =      2    spin polarized calculation?
   LNONCOLLINEAR =      F non collinear calculations
   LSORBIT =      F    spin-orbit coupling
   INIWAV =      1    electr: 0-lowe 1-rand  2-diag
   LASPH  =      F    aspherical Exc in radial PAW
   METAGGA=      F    non-selfconsistent MetaGGA calc.

 Electronic Relaxation 1
   ENCUT  =  367.7 eV  27.02 Ry    5.20 a.u.  16.12  4.46 47.87*2*pi/ulx,y,z
   ENINI  =  367.7     initial cutoff
   ENAUG  =  500.7 eV  augmentation charge cutoff
   NELM   =     60;   NELMIN=  2; NELMDL= -5     # of ELM steps 
   EDIFF  = 0.1E-03   stopping-criterion for ELM
   LREAL  =      F    real-space projection
   NLSPLINE    = F    spline interpolate recip. space projectors
   LCOMPAT=      F    compatible to vasp.4.4
   GGA_COMPAT  = T    GGA compatible to vasp.4.4-vasp.4.6
   LMAXPAW     = -100 max onsite density
   LMAXMIX     =    4 max onsite mixed and CHGCAR
   VOSKOWN=      1    Vosko Wilk Nusair interpolation
   ROPT   =    0.00000   0.00000
 Ionic relaxation
   EDIFFG = 0.1E-02   stopping-criterion for IOM
   NSW    =    111    number of steps for IOM
   NBLOCK =      1;   KBLOCK =    111    inner block; outer block 
   IBRION =      2    ionic relax: 0-MD 1-quasi-New 2-CG
   NFREE  =      1    steps in history (QN), initial steepest desc. (CG)
   ISIF   =      2    stress and relaxation
   IWAVPR =     11    prediction:  0-non 1-charg 2-wave 3-comb
   ISYM   =      2    0-nonsym 1-usesym 2-fastsym
   LCORR  =      T    Harris-Foulkes like correction to forces

   POTIM  = 0.5000    time-step for ionic-motion
   TEIN   =    0.0    initial temperature
   TEBEG  =    0.0;   TEEND  =   0.0 temperature during run
   SMASS  =  -3.00    Nose mass-parameter (am)
   estimated Nose-frequenzy (Omega)   =  0.10E-29 period in steps =****** mass=  -0.243E-26a.u.
   SCALEE = 1.0000    scale energy and forces
   NPACO  =    256;   APACO  = 16.0  distance and # of slots for P.C.
   PSTRESS=    0.0 pullay stress

  Mass of Ions in am
   POMASS =  16.00 54.94
  Ionic Valenz
   ZVAL   =   6.00  7.00
  Atomic Wigner-Seitz radii
   RWIGS  =  -1.00 -1.00
  virtual crystal weights 
   VCA    =   1.00  1.00
   NELECT =     228.0000    total number of electrons
   NUPDOWN=      -1.0000    fix difference up-down

 DOS related values:
   EMIN   =  10.00;   EMAX   =-10.00  energy-range for DOS
   EFERMI =   0.00
   ISMEAR =     1;   SIGMA  =   0.20  broadening in eV -4-tet -1-fermi 0-gaus

 Electronic relaxation 2 (details)
   IALGO  =     38    algorithm
   LDIAG  =      T    sub-space diagonalisation (order eigenvalues)
   LSUBROT=      T    optimize rotation matrix (better conditioning)
   TURBO    =      0    0=normal 1=particle mesh
   IRESTART =      0    0=no restart 2=restart with 2 vectors
   NREBOOT  =      0    no. of reboots
   NMIN     =      0    reboot dimension
   EREF     =   0.00    reference energy to select bands
   IMIX   =      4    mixing-type and parameters
     AMIX     =   0.40;   BMIX     =  1.00
     AMIX_MAG =   1.60;   BMIX_MAG =  1.00
     AMIN     =   0.10
     WC   =   100.;   INIMIX=   1;  MIXPRE=   1;  MAXMIX= -45

 Intra band minimization:
   WEIMIN = 0.0010     energy-eigenvalue tresh-hold
   EBREAK =  0.18E-06  absolut break condition
   DEPER  =   0.30     relativ break condition  

   TIME   =   0.40     timestep for ELM

  volume/ion in A,a.u.               =      25.02       168.84
  Fermi-wavevector in a.u.,A,eV,Ry     =   1.035605  1.957010 14.591947  1.072478
  Thomas-Fermi vector in A             =   2.169956
 
 Write flags
   LWAVE  =      F    write WAVECAR
   LCHARG =      F    write CHGCAR
   LVTOT  =      F    write LOCPOT, total local potential
   LVHAR  =      F    write LOCPOT, Hartree potential only
   LELF   =      F    write electronic localiz. function (ELF)
   LORBIT =      0    0 simple, 1 ext, 2 COOP (PROOUT)


 Dipole corrections
   LMONO  =      F    monopole corrections only (constant potential shift)
   LDIPOL =      F    correct potential (dipole corrections)
   IDIPOL =      0    1-x, 2-y, 3-z, 4-all directions 
   EPSILON=  1.0000000 bulk dielectric constant

 LDA+U is selected, type is set to LDAUTYPE =  2
   angular momentum for each species LDAUL =    -1    2
   U (eV)           for each species LDAUU =   0.0  3.9
   J (eV)           for each species LDAUJ =   0.0  0.0
 Exchange correlation treatment:
   GGA     =    --    GGA type
   LEXCH   =     8    internal setting for exchange type
   VOSKOWN=      1    Vosko Wilk Nusair interpolation
   LHFCALC =     F    Hartree Fock is set to
   LHFONE  =     F    Hartree Fock one center treatment
   AEXX    =    0.0000 exact exchange contribution

 Linear response parameters
   LEPSILON=     F    determine dielectric tensor
   LRPA    =     F    only Hartree local field effects (RPA)
   LNABLA  =     F    use nabla operator in PAW spheres
   LVEL    =     F    velocity operator in full k-point grid
   LINTERFAST=   F  fast interpolation
   KINTER  =     0    interpolate to denser k-point grid
   CSHIFT  =0.1000    complex shift for real part using Kramers Kronig
   OMEGAMAX=  -1.0    maximum frequency
   DEG_THRESHOLD= 0.2000000E-02 threshold for treating states as degnerate
   RTIME   =    0.100 relaxation time in fs

 Orbital magnetization related:
   ORBITALMAG=     F  switch on orbital magnetization
   LCHIMAG   =     F  perturbation theory with respect to B field
   DQ        =  0.001000  dq finite difference perturbation B field



--------------------------------------------------------------------------------------------------------


 conjugate gradient relaxation of ions
   using selective dynamics as specified on POSCAR
 charge density and potential will be updated during run
 spin polarized calculation
 Variant of blocked Davidson
 Davidson routine will perform the subspace rotation
 perform sub-space diagonalisation
    after iterative eigenvector-optimisation
 modified Broyden-mixing scheme, WC =      100.0
 initial mixing is a Kerker type mixing with AMIX =  0.4000 and BMIX =      1.0000
 Hartree-type preconditioning will be used
 using additional bands           22
 reciprocal scheme for non local part
 use partial core corrections
 calculate Harris-corrections to forces 
   (improved forces if not selfconsistent)
 use gradient corrections 
 use of overlap-Matrix (Vanderbilt PP)
 Methfessel and Paxton  Order N= 1 SIGMA  =   0.20


--------------------------------------------------------------------------------------------------------


  energy-cutoff  :      367.69
  volume of cell :      900.69
      direct lattice vectors                 reciprocal lattice vectors
    10.308000000  0.000000000  0.000000000     0.097012029  0.000000000  0.000000000
     0.000000000  2.854000000  0.000000000     0.000000000  0.350385424  0.000000000
     0.000000000  0.000000000 30.616000000     0.000000000  0.000000000  0.032662660

  length of vectors
    10.308000000  2.854000000 30.616000000     0.097012029  0.350385424  0.032662660


 
 k-points in units of 2pi/SCALE and weight: Automatic mesh                          
   0.00000000  0.00000000  0.00000000       0.500
   0.00000000  0.17519271  0.00000000       0.500
 
 k-points in reciprocal lattice and weights: Automatic mesh                          
   0.00000000  0.00000000  0.00000000       0.500
   0.00000000  0.50000000  0.00000000       0.500
 
 position of ions in fractional coordinates (direct lattice) 
   0.79690000  0.00000000  0.44777989
   0.20310000  0.00000000  0.55222011
   0.20310000  0.00000000  0.21553341
   0.84490000  0.00000000  0.23169437
   0.84490000  0.00000000  0.56838107
   0.15510000  0.00000000  0.43161893
   0.29690000  0.50000000  0.27943654
   0.29690000  0.50000000  0.61612324
   0.70310000  0.50000000  0.38387676
   0.34490000  0.50000000  0.40003772
   0.65510000  0.50000000  0.59996228
   0.65510000  0.50000000  0.26327558
   0.54120000  0.00000000  0.44441303
   0.45880000  0.00000000  0.55558697
   0.45880000  0.00000000  0.21890027
   0.83490000  0.00000000  0.31778516
   0.16510000  0.00000000  0.68221484
   0.83490000  0.00000000  0.65447186
   0.16510000  0.00000000  0.34552814
   0.04120000  0.50000000  0.27606968
   0.04120000  0.50000000  0.61275638
   0.95880000  0.50000000  0.38724362
   0.33490000  0.50000000  0.48612851
   0.66510000  0.50000000  0.51387149
   0.83470000  0.00000000  0.38293403
   0.16530000  0.00000000  0.61706597
   0.16530000  0.00000000  0.28037927
   0.65230000  0.00000000  0.21896761
   0.65230000  0.00000000  0.55565431
   0.34770000  0.00000000  0.44434569
   0.33470000  0.50000000  0.21459068
   0.33470000  0.50000000  0.55127738
   0.66530000  0.50000000  0.44872262
   0.15230000  0.50000000  0.38731096
   0.84770000  0.50000000  0.61268904
   0.84770000  0.50000000  0.27600234
 
 position of ions in cartesian coordinates  (Angst):
   8.21444520  0.00000000 13.70922911
   2.09355480  0.00000000 16.90677089
   2.09355480  0.00000000  6.59877088
   8.70922920  0.00000000  7.09355483
   8.70922920  0.00000000 17.40155484
   1.59877080  0.00000000 13.21444516
   3.06044520  1.42700000  8.55522911
   3.06044520  1.42700000 18.86322912
   7.24755480  1.42700000 11.75277088
   3.55522920  1.42700000 12.24755484
   6.75277080  1.42700000 18.36844516
   6.75277080  1.42700000  8.06044516
   5.57868960  0.00000000 13.60614933
   4.72931040  0.00000000 17.00985067
   4.72931040  0.00000000  6.70185067
   8.60614920  0.00000000  9.72931046
   1.70185080  0.00000000 20.88668954
   8.60614920  0.00000000 20.03731047
   1.70185080  0.00000000 10.57868953
   0.42468960  1.42700000  8.45214932
   0.42468960  1.42700000 18.76014933
   9.88331040  1.42700000 11.85585067
   3.45214920  1.42700000 14.88331046
   6.85585080  1.42700000 15.73268954
   8.60408760  0.00000000 11.72390826
   1.70391240  0.00000000 18.89209174
   1.70391240  0.00000000  8.58409173
   6.72390840  0.00000000  6.70391235
   6.72390840  0.00000000 17.01191235
   3.58409160  0.00000000 13.60408765
   3.45008760  1.42700000  6.56990826
   3.45008760  1.42700000 16.87790827
   6.85791240  1.42700000 13.73809173
   1.56990840  1.42700000 11.85791235
   8.73809160  1.42700000 18.75808765
   8.73809160  1.42700000  8.45008764
 


--------------------------------------------------------------------------------------------------------


 k-point  1 :   0.0000 0.0000 0.0000  plane waves:   14531
 k-point  2 :   0.0000 0.5000 0.0000  plane waves:   14284

 maximum and minimum number of plane-waves per node :      7269     7142

 maximum number of plane-waves:     14531
 maximum index in each direction: 
   IXMAX=   16   IYMAX=    4   IZMAX=   47
   IXMIN=  -16   IYMIN=   -4   IZMIN=  -47

 WARNING: aliasing errors must be expected set NGX to  66 to avoid them
 WARNING: aliasing errors must be expected set NGY to  18 to avoid them
 WARNING: aliasing errors must be expected set NGZ to 190 to avoid them
 aliasing errors are usually negligible using standard VASP settings
 and one can safely disregard these warnings

 parallel 3D FFT for wavefunctions:
    minimum data exchange during FFTs selected (reduces bandwidth)
 parallel 3D FFT for charge:
    minimum data exchange during FFTs selected (reduces bandwidth)


 total amount of memory used by VASP on root node    57954. kBytes
========================================================================

   base      :      30000. kBytes
   nonl-proj :       8368. kBytes
   fftplans  :       3122. kBytes
   grid      :       7776. kBytes
   one-center:        559. kBytes
   wavefun   :       8129. kBytes
 
 Broyden mixing: mesh for mixing (old mesh)
   NGX = 33   NGY =  9   NGZ = 95
  (NGX  = 96   NGY  = 28   NGZ  =288)
  gives a total of  28215 points

 initial charge density was supplied:
 charge density of overlapping atoms calculated
 number of electron     228.0000000 magnetization      -0.0000000
 keeping initial charge density in first step


--------------------------------------------------------------------------------------------------------


 Maximum index for augmentation-charges          301 (set IRDMAX)


--------------------------------------------------------------------------------------------------------


 First call to EWALD:  gamma=   0.184
 Maximum number of real-space cells 3x 8x 1
 Maximum number of reciprocal cells 3x 1x 8

 FEWALD executed in parallel
    FEWALD:  cpu time    0.00: real time    0.00


----------------------------------------- Iteration    1(   1)  ---------------------------------------


    POTLOK:  cpu time    0.08: real time    0.08
    SETDIJ:  cpu time    0.01: real time    0.01
     EDDAV:  cpu time    2.40: real time    2.41
       DOS:  cpu time    0.00: real time    0.00
    --------------------------------------------
      LOOP:  cpu time    2.49: real time    2.56

 eigenvalue-minimisations  :  1104
 total energy-change (2. order) : 0.2732074E+04  (-0.7881561E+04)
 number of electron     228.0000000 magnetization      -0.0000000
 augmentation part      228.0000000 magnetization      -0.0000000

 Free energy of the ion-electron system (eV)
  ---------------------------------------------------
  alpha Z        PSCENC =       349.72570236
  Ewald energy   TEWEN  =     93961.16591856
  -1/2 Hartree   DENC   =   -108394.52018777
  -exchange  EXHF       =         0.00000000
  -V(xc)+E(xc)   XCENC  =       525.16196272
  PAW double counting   =     10909.34114156   -10745.31768692
  entropy T*S    EENTRO =        -0.01171935
  eigenvalues    EBANDS =       749.68982166
  atomic energy  EATOM  =     15376.83878752
  ---------------------------------------------------
  free energy    TOTEN  =      2732.07374033 eV

  energy without entropy =     2732.08545968  energy(sigma->0) =     2732.07764678


--------------------------------------------------------------------------------------------------------




----------------------------------------- Iteration    1(   2)  ---------------------------------------


     EDDAV:  cpu time    2.40: real time    2.41
       DOS:  cpu time    0.00: real time    0.00
    --------------------------------------------
      LOOP:  cpu time    2.40: real time    2.48

 eigenvalue-minimisations  :  1120
 total energy-change (2. order) :-0.2372685E+04  (-0.2304290E+04)
 number of electron     228.0000000 magnetization      -0.0000000
 augmentation part      228.0000000 magnetization      -0.0000000

 Free energy of the ion-electron system (eV)
  ---------------------------------------------------
  alpha Z        PSCENC =       349.72570236
  Ewald energy   TEWEN  =     93961.16591856
  -1/2 Hartree   DENC   =   -108394.52018777
  -exchange  EXHF       =         0.00000000
  -V(xc)+E(xc)   XCENC  =       525.16196272
  PAW double counting   =     10909.34114156   -10745.31768692
  entropy T*S    EENTRO =         0.01564775
  eigenvalues    EBANDS =     -1623.02224856
  atomic energy  EATOM  =     15376.83878752
  ---------------------------------------------------
  free energy    TOTEN  =       359.38903722 eV

  energy without entropy =      359.37338947  energy(sigma->0) =      359.38382130


--------------------------------------------------------------------------------------------------------




----------------------------------------- Iteration    1(   3)  ---------------------------------------


     EDDAV:  cpu time    3.26: real time    3.26
       DOS:  cpu time    0.00: real time    0.00
    --------------------------------------------
      LOOP:  cpu time    3.26: real time    3.36

 eigenvalue-minimisations  :  1656
 total energy-change (2. order) :-0.6358949E+03  (-0.6148733E+03)
 number of electron     228.0000000 magnetization      -0.0000000
 augmentation part      228.0000000 magnetization      -0.0000000

 Free energy of the ion-electron system (eV)
  ---------------------------------------------------
  alpha Z        PSCENC =       349.72570236
  Ewald energy   TEWEN  =     93961.16591856
  -1/2 Hartree   DENC   =   -108394.52018777
  -exchange  EXHF       =         0.00000000
  -V(xc)+E(xc)   XCENC  =       525.16196272
  PAW double counting   =     10909.34114156   -10745.31768692
  entropy T*S    EENTRO =        -0.00283641
  eigenvalues    EBANDS =     -2258.89864499
  atomic energy  EATOM  =     15376.83878752
  ---------------------------------------------------
  free energy    TOTEN  =      -276.50584337 eV

  energy without entropy =     -276.50300696  energy(sigma->0) =     -276.50489790


--------------------------------------------------------------------------------------------------------




----------------------------------------- Iteration    1(   4)  ---------------------------------------


     EDDAV:  cpu time    3.34: real time    3.34
       DOS:  cpu time    0.00: real time    0.00
    --------------------------------------------
      LOOP:  cpu time    3.34: real time    3.43

 eigenvalue-minimisations  :  1704
 total energy-change (2. order) :-0.6143102E+02  (-0.6006460E+02)
 number of electron     228.0000000 magnetization      -0.0000000
 augmentation part      228.0000000 magnetization      -0.0000000

 Free energy of the ion-electron system (eV)
  ---------------------------------------------------
  alpha Z        PSCENC =       349.72570236
  Ewald energy   TEWEN  =     93961.16591856
  -1/2 Hartree   DENC   =   -108394.52018777
  -exchange  EXHF       =         0.00000000
  -V(xc)+E(xc)   XCENC  =       525.16196272
  PAW double counting   =     10909.34114156   -10745.31768692
  entropy T*S    EENTRO =         0.03728617
  eigenvalues    EBANDS =     -2320.36978617
  atomic energy  EATOM  =     15376.83878752
  ---------------------------------------------------
  free energy    TOTEN  =      -337.93686197 eV

  energy without entropy =     -337.97414814  energy(sigma->0) =     -337.94929070


--------------------------------------------------------------------------------------------------------




----------------------------------------- Iteration    1(   5)  ---------------------------------------


     EDDAV:  cpu time    3.26: real time    3.26
       DOS:  cpu time    0.00: real time    0.00
    CHARGE:  cpu time    0.11: real time    0.11
    MIXING:  cpu time    0.00: real time    0.00
    --------------------------------------------
      LOOP:  cpu time    3.37: real time    3.46

 eigenvalue-minimisations  :  1656
 total energy-change (2. order) :-0.1817332E+01  (-0.1785033E+01)
 number of electron     227.9999879 magnetization       0.0241535
 augmentation part       64.2699916 magnetization      -0.2159451

 Broyden mixing:
  rms(total) = 0.65924E+01    rms(broyden)= 0.65847E+01
  rms(prec ) = 0.69393E+01
  weight for this iteration     100.00

 Free energy of the ion-electron system (eV)
  ---------------------------------------------------
  alpha Z        PSCENC =       349.72570236
  Ewald energy   TEWEN  =     93961.16591856
  -1/2 Hartree   DENC   =   -108394.52018777
  -exchange  EXHF       =         0.00000000
  -V(xc)+E(xc)   XCENC  =       525.16196272
  PAW double counting   =     10909.34114156   -10745.31768692
  entropy T*S    EENTRO =         0.02654024
  eigenvalues    EBANDS =     -2322.17637247
  atomic energy  EATOM  =     15376.83878752
  ---------------------------------------------------
  free energy    TOTEN  =      -339.75419420 eV

  energy without entropy =     -339.78073444  energy(sigma->0) =     -339.76304095


--------------------------------------------------------------------------------------------------------




----------------------------------------- Iteration    1(   6)  ---------------------------------------


    POTLOK:  cpu time    0.07: real time    0.07
    SETDIJ:  cpu time    0.01: real time    0.01
     EDDAV:  cpu time    3.70: real time    3.70
       DOS:  cpu time    0.00: real time    0.00
    CHARGE:  cpu time    0.11: real time    0.11
    MIXING:  cpu time    0.00: real time    0.00
    --------------------------------------------
      LOOP:  cpu time    3.89: real time    4.09

 eigenvalue-minimisations  :  1928
 total energy-change (2. order) :-0.5873469E+02  (-0.1796486E+03)
 number of electron     227.9999960 magnetization       0.0258362
 augmentation part       82.7201026 magnetization      -0.0286199

 Broyden mixing:
  rms(total) = 0.12312E+02    rms(broyden)= 0.12309E+02
  rms(prec ) = 0.16170E+02
  weight for this iteration     100.00

 eigenvalues of (default mixing * dielectric matrix)
  average eigenvalue GAMMA=   0.3126
  0.3126

 Free energy of the ion-electron system (eV)
  ---------------------------------------------------
  alpha Z        PSCENC =       349.72570236
  Ewald energy   TEWEN  =     93961.16591856
  -1/2 Hartree   DENC   =   -108479.75094685
  -exchange  EXHF       =         0.00000000
  -V(xc)+E(xc)   XCENC  =       553.64946442
  PAW double counting   =     11707.49704007   -11527.87325889
  entropy T*S    EENTRO =         0.00924721
  eigenvalues    EBANDS =     -2339.75083907
  atomic energy  EATOM  =     15376.83878752
  ---------------------------------------------------
  free energy    TOTEN  =      -398.48888467 eV

  energy without entropy =     -398.49813187  energy(sigma->0) =     -398.49196707


--------------------------------------------------------------------------------------------------------




----------------------------------------- Iteration    1(   7)  ---------------------------------------


    POTLOK:  cpu time    0.07: real time    0.07
    SETDIJ:  cpu time    0.01: real time    0.01
     EDDAV:  cpu time    4.01: real time    4.01
       DOS:  cpu time    0.00: real time    0.00
    CHARGE:  cpu time    0.11: real time    0.11
    MIXING:  cpu time    0.00: real time    0.00
    --------------------------------------------
      LOOP:  cpu time    4.20: real time    4.30

 eigenvalue-minimisations  :  2120
 total energy-change (2. order) :-0.2758799E+03  (-0.5932833E+03)
 number of electron     227.9999931 magnetization       0.0252465
 augmentation part       75.5195260 magnetization      -0.0149127

 Broyden mixing:
  rms(total) = 0.14278E+02    rms(broyden)= 0.14276E+02
  rms(prec ) = 0.21962E+02
  weight for this iteration     100.00

 eigenvalues of (default mixing * dielectric matrix)
  average eigenvalue GAMMA=   0.1912
  0.3064  0.0759

 Free energy of the ion-electron system (eV)
  ---------------------------------------------------
  alpha Z        PSCENC =       349.72570236
  Ewald energy   TEWEN  =     93961.16591856
  -1/2 Hartree   DENC   =   -108545.58031193
  -exchange  EXHF       =         0.00000000
  -V(xc)+E(xc)   XCENC  =       539.33623964
  PAW double counting   =     11751.32585286   -11603.44797587
  entropy T*S    EENTRO =        -0.00839201
  eigenvalues    EBANDS =     -2503.72456350
  atomic energy  EATOM  =     15376.83878752
  ---------------------------------------------------
  free energy    TOTEN  =      -674.36874237 eV

  energy without entropy =     -674.36035037  energy(sigma->0) =     -674.36594504


--------------------------------------------------------------------------------------------------------




----------------------------------------- Iteration    1(   8)  ---------------------------------------


    POTLOK:  cpu time    0.07: real time    0.07
    SETDIJ:  cpu time    0.01: real time    0.01
     EDDAV:  cpu time    3.35: real time    3.35
       DOS:  cpu time    0.00: real time    0.00
    CHARGE:  cpu time    0.11: real time    0.11
    MIXING:  cpu time    0.00: real time    0.00
    --------------------------------------------
      LOOP:  cpu time    3.55: real time    3.64

 eigenvalue-minimisations  :  1712
 total energy-change (2. order) : 0.4437180E+03  (-0.1974373E+03)
 number of electron     227.9999932 magnetization       0.0361256
 augmentation part       67.6519714 magnetization      -0.3627605

 Broyden mixing:
  rms(total) = 0.67741E+01    rms(broyden)= 0.67718E+01
  rms(prec ) = 0.92197E+01
  weight for this iteration     100.00

 eigenvalues of (default mixing * dielectric matrix)
  average eigenvalue GAMMA=   0.2057
  0.3232  0.1470  0.1470

 Free energy of the ion-electron system (eV)
  ---------------------------------------------------
  alpha Z        PSCENC =       349.72570236
  Ewald energy   TEWEN  =     93961.16591856
  -1/2 Hartree   DENC   =   -108715.31748104
  -exchange  EXHF       =         0.00000000
  -V(xc)+E(xc)   XCENC  =       531.57409720
  PAW double counting   =     11778.85819652   -11647.99178671
  entropy T*S    EENTRO =        -0.01143391
  eigenvalues    EBANDS =     -1865.49273531
  atomic energy  EATOM  =     15376.83878752
  ---------------------------------------------------
  free energy    TOTEN  =      -230.65073481 eV

  energy without entropy =     -230.63930090  energy(sigma->0) =     -230.64692351


--------------------------------------------------------------------------------------------------------




----------------------------------------- Iteration    1(   9)  ---------------------------------------


    POTLOK:  cpu time    0.07: real time    0.07
    SETDIJ:  cpu time    0.01: real time    0.01
     EDDAV:  cpu time    3.42: real time    3.43
       DOS:  cpu time    0.00: real time    0.00
    CHARGE:  cpu time    0.11: real time    0.11
    MIXING:  cpu time    0.00: real time    0.00
    --------------------------------------------
      LOOP:  cpu time    3.62: real time    3.82

 eigenvalue-minimisations  :  1760
 total energy-change (2. order) :-0.2146016E+02  (-0.4905061E+02)
 number of electron     227.9999904 magnetization       0.0657145
 augmentation part       64.5961319 magnetization      -0.3600556

 Broyden mixing:
  rms(total) = 0.34881E+01    rms(broyden)= 0.34817E+01
  rms(prec ) = 0.37821E+01
  weight for this iteration     100.00

 eigenvalues of (default mixing * dielectric matrix)
  average eigenvalue GAMMA=   0.2768
  0.6427  0.1914  0.1365  0.1365

 Free energy of the ion-electron system (eV)
  ---------------------------------------------------
  alpha Z        PSCENC =       349.72570236
  Ewald energy   TEWEN  =     93961.16591856
  -1/2 Hartree   DENC   =   -108547.93548841
  -exchange  EXHF       =         0.00000000
  -V(xc)+E(xc)   XCENC  =       530.38168066
  PAW double counting   =     11799.54459609   -11670.54215519
  entropy T*S    EENTRO =        -0.03145594
  eigenvalues    EBANDS =     -2051.25847577
  atomic energy  EATOM  =     15376.83878752
  ---------------------------------------------------
  free energy    TOTEN  =      -252.11089012 eV

  energy without entropy =     -252.07943418  energy(sigma->0) =     -252.10040481


--------------------------------------------------------------------------------------------------------




----------------------------------------- Iteration    1(  10)  ---------------------------------------


    POTLOK:  cpu time    0.07: real time    0.07
    SETDIJ:  cpu time    0.01: real time    0.01
     EDDAV:  cpu time    3.38: real time    3.38
       DOS:  cpu time    0.00: real time    0.00
    CHARGE:  cpu time    0.11: real time    0.11
    MIXING:  cpu time    0.00: real time    0.00
    --------------------------------------------
      LOOP:  cpu time    3.58: real time    3.66

 eigenvalue-minimisations  :  1736
 total energy-change (2. order) : 0.3935749E+00  (-0.6346974E+01)
 number of electron     227.9999921 magnetization       0.0753855
 augmentation part       65.0613596 magnetization      -0.3797106

 Broyden mixing:
  rms(total) = 0.26812E+01    rms(broyden)= 0.26804E+01
  rms(prec ) = 0.28304E+01
  weight for this iteration     100.00

 eigenvalues of (default mixing * dielectric matrix)
  average eigenvalue GAMMA=   0.2815
  0.5625  0.2919  0.2919  0.1307  0.1307

 Free energy of the ion-electron system (eV)
  ---------------------------------------------------
  alpha Z        PSCENC =       349.72570236
  Ewald energy   TEWEN  =     93961.16591856
  -1/2 Hartree   DENC   =   -108545.96634866
  -exchange  EXHF       =         0.00000000
  -V(xc)+E(xc)   XCENC  =       533.52872600
  PAW double counting   =     11905.27068434   -11774.61796724
  entropy T*S    EENTRO =         0.02523166
  eigenvalues    EBANDS =     -2057.68804972
  atomic energy  EATOM  =     15376.83878752
  ---------------------------------------------------
  free energy    TOTEN  =      -251.71731518 eV

  energy without entropy =     -251.74254684  energy(sigma->0) =     -251.72572573


--------------------------------------------------------------------------------------------------------




----------------------------------------- Iteration    1(  11)  ---------------------------------------


    POTLOK:  cpu time    0.07: real time    0.07
    SETDIJ:  cpu time    0.01: real time    0.01
     EDDAV:  cpu time    3.22: real time    3.22
       DOS:  cpu time    0.00: real time    0.00
    CHARGE:  cpu time    0.11: real time    0.11
    MIXING:  cpu time    0.00: real time    0.00
    --------------------------------------------
      LOOP:  cpu time    3.42: real time    3.50

 eigenvalue-minimisations  :  1632
 total energy-change (2. order) :-0.6742353E-01  (-0.1068041E+01)
 number of electron     227.9999912 magnetization       0.0645301
 augmentation part       64.9034673 magnetization       0.0151270

 Broyden mixing:
  rms(total) = 0.25329E+01    rms(broyden)= 0.25323E+01
  rms(prec ) = 0.27453E+01
  weight for this iteration     100.00

 eigenvalues of (default mixing * dielectric matrix)
  average eigenvalue GAMMA=   0.2944
  0.5314  0.4021  0.4021  0.1320  0.1320  0.1667

 Free energy of the ion-electron system (eV)
  ---------------------------------------------------
  alpha Z        PSCENC =       349.72570236
  Ewald energy   TEWEN  =     93961.16591856
  -1/2 Hartree   DENC   =   -108562.76500028
  -exchange  EXHF       =         0.00000000
  -V(xc)+E(xc)   XCENC  =       534.47225612
  PAW double counting   =     11937.29643043   -11806.18164508
  entropy T*S    EENTRO =         0.00366518
  eigenvalues    EBANDS =     -2042.34085352
  atomic energy  EATOM  =     15376.83878752
  ---------------------------------------------------
  free energy    TOTEN  =      -251.78473872 eV

  energy without entropy =     -251.78840389  energy(sigma->0) =     -251.78596044


--------------------------------------------------------------------------------------------------------




----------------------------------------- Iteration    1(  12)  ---------------------------------------


    POTLOK:  cpu time    0.07: real time    0.07
    SETDIJ:  cpu time    0.01: real time    0.01
     EDDAV:  cpu time    3.91: real time    3.91
       DOS:  cpu time    0.00: real time    0.00
    CHARGE:  cpu time    0.11: real time    0.11
    MIXING:  cpu time    0.00: real time    0.00
    --------------------------------------------
      LOOP:  cpu time    4.10: real time    4.33

 eigenvalue-minimisations  :  2056
 total energy-change (2. order) : 0.1539054E+01  (-0.5896946E+00)
 number of electron     227.9999923 magnetization       0.0659206
 augmentation part       65.4488232 magnetization      -0.3432335

 Broyden mixing:
  rms(total) = 0.20921E+01    rms(broyden)= 0.20916E+01
  rms(prec ) = 0.22417E+01
  weight for this iteration     100.00

 eigenvalues of (default mixing * dielectric matrix)
  average eigenvalue GAMMA=   0.3969
  0.8074  0.8074  0.4985  0.2336  0.1330  0.1330  0.1651

 Free energy of the ion-electron system (eV)
  ---------------------------------------------------
  alpha Z        PSCENC =       349.72570236
  Ewald energy   TEWEN  =     93961.16591856
  -1/2 Hartree   DENC   =   -108545.89860238
  -exchange  EXHF       =         0.00000000
  -V(xc)+E(xc)   XCENC  =       535.92219823
  PAW double counting   =     11991.53676804   -11859.76225424
  entropy T*S    EENTRO =         0.00201567
  eigenvalues    EBANDS =     -2059.77621857
  atomic energy  EATOM  =     15376.83878752
  ---------------------------------------------------
  free energy    TOTEN  =      -250.24568482 eV

  energy without entropy =     -250.24770048  energy(sigma->0) =     -250.24635671


--------------------------------------------------------------------------------------------------------




----------------------------------------- Iteration    1(  13)  ---------------------------------------


    POTLOK:  cpu time    0.07: real time    0.07
    SETDIJ:  cpu time    0.01: real time    0.01
     EDDAV:  cpu time    3.90: real time    3.90
       DOS:  cpu time    0.00: real time    0.00
    CHARGE:  cpu time    0.11: real time    0.11
    MIXING:  cpu time    0.00: real time    0.00
    --------------------------------------------
      LOOP:  cpu time    4.10: real time    4.20

 eigenvalue-minimisations  :  2048
 total energy-change (2. order) : 0.1561959E+01  (-0.4196102E+00)
 number of electron     227.9999923 magnetization       0.0518274
 augmentation part       66.2085154 magnetization      -0.1218465

 Broyden mixing:
  rms(total) = 0.13913E+01    rms(broyden)= 0.13907E+01
  rms(prec ) = 0.15228E+01
  weight for this iteration     100.00

 eigenvalues of (default mixing * dielectric matrix)
  average eigenvalue GAMMA=   0.4204
  0.9437  0.9437  0.4690  0.2891  0.2891  0.1326  0.1326  0.1637

 Free energy of the ion-electron system (eV)
  ---------------------------------------------------
  alpha Z        PSCENC =       349.72570236
  Ewald energy   TEWEN  =     93961.16591856
  -1/2 Hartree   DENC   =   -108547.72554277
  -exchange  EXHF       =         0.00000000
  -V(xc)+E(xc)   XCENC  =       539.82353788
  PAW double counting   =     12091.40656325   -11956.82146505
  entropy T*S    EENTRO =         0.03097865
  eigenvalues    EBANDS =     -2063.12820627
  atomic energy  EATOM  =     15376.83878752
  ---------------------------------------------------
  free energy    TOTEN  =      -248.68372588 eV

  energy without entropy =     -248.71470453  energy(sigma->0) =     -248.69405210


--------------------------------------------------------------------------------------------------------




----------------------------------------- Iteration    1(  14)  ---------------------------------------


    POTLOK:  cpu time    0.07: real time    0.07
    SETDIJ:  cpu time    0.01: real time    0.01
     EDDAV:  cpu time    3.89: real time    3.89
       DOS:  cpu time    0.00: real time    0.00
    CHARGE:  cpu time    0.11: real time    0.11
    MIXING:  cpu time    0.00: real time    0.00
    --------------------------------------------
      LOOP:  cpu time    4.09: real time    4.30

 eigenvalue-minimisations  :  2048
 total energy-change (2. order) : 0.1399154E+00  (-0.2224390E+00)
 number of electron     227.9999913 magnetization       0.0380693
 augmentation part       66.6356582 magnetization      -0.0046984

 Broyden mixing:
  rms(total) = 0.11129E+01    rms(broyden)= 0.11121E+01
  rms(prec ) = 0.12421E+01
  weight for this iteration     100.00

 eigenvalues of (default mixing * dielectric matrix)
  average eigenvalue GAMMA=   0.4326
  1.0357  1.0357  0.4724  0.3425  0.3425  0.1327  0.1327  0.2346  0.1649

 Free energy of the ion-electron system (eV)
  ---------------------------------------------------
  alpha Z        PSCENC =       349.72570236
  Ewald energy   TEWEN  =     93961.16591856
  -1/2 Hartree   DENC   =   -108545.47288648
  -exchange  EXHF       =         0.00000000
  -V(xc)+E(xc)   XCENC  =       542.40667386
  PAW double counting   =     12139.91019977   -12003.95747928
  entropy T*S    EENTRO =        -0.03459884
  eigenvalues    EBANDS =     -2069.12612797
  atomic energy  EATOM  =     15376.83878752
  ---------------------------------------------------
  free energy    TOTEN  =      -248.54381051 eV

  energy without entropy =     -248.50921166  energy(sigma->0) =     -248.53227756


--------------------------------------------------------------------------------------------------------




----------------------------------------- Iteration    1(  15)  ---------------------------------------


    POTLOK:  cpu time    0.07: real time    0.07
    SETDIJ:  cpu time    0.01: real time    0.01
     EDDAV:  cpu time    3.73: real time    3.74
       DOS:  cpu time    0.00: real time    0.00
    CHARGE:  cpu time    0.11: real time    0.11
    MIXING:  cpu time    0.00: real time    0.00
    --------------------------------------------
      LOOP:  cpu time    3.93: real time    4.03

 eigenvalue-minimisations  :  1952
 total energy-change (2. order) : 0.1511196E+00  (-0.8914855E-01)
 number of electron     227.9999914 magnetization       0.0269851
 augmentation part       66.7966415 magnetization       0.4192858

 Broyden mixing:
  rms(total) = 0.97514E+00    rms(broyden)= 0.97471E+00
  rms(prec ) = 0.10937E+01
  weight for this iteration     100.00

 eigenvalues of (default mixing * dielectric matrix)
  average eigenvalue GAMMA=   0.3959
  1.0342  1.0342  0.4723  0.3406  0.3406  0.1328  0.1328  0.2263  0.1655  0.0795

 Free energy of the ion-electron system (eV)
  ---------------------------------------------------
  alpha Z        PSCENC =       349.72570236
  Ewald energy   TEWEN  =     93961.16591856
  -1/2 Hartree   DENC   =   -108538.44311580
  -exchange  EXHF       =         0.00000000
  -V(xc)+E(xc)   XCENC  =       544.18106841
  PAW double counting   =     12165.55896750   -12029.15905910
  entropy T*S    EENTRO =         0.03478629
  eigenvalues    EBANDS =     -2078.29574666
  atomic energy  EATOM  =     15376.83878752
  ---------------------------------------------------
  free energy    TOTEN  =      -248.39269092 eV

  energy without entropy =     -248.42747721  energy(sigma->0) =     -248.40428635


--------------------------------------------------------------------------------------------------------




----------------------------------------- Iteration    1(  16)  ---------------------------------------


    POTLOK:  cpu time    0.07: real time    0.07
    SETDIJ:  cpu time    0.01: real time    0.01
     EDDAV:  cpu time    2.87: real time    2.87
       DOS:  cpu time    0.00: real time    0.00
    CHARGE:  cpu time    0.11: real time    0.11
    MIXING:  cpu time    0.00: real time    0.00
    --------------------------------------------
      LOOP:  cpu time    3.07: real time    3.16

 eigenvalue-minimisations  :  1408
 total energy-change (2. order) : 0.1131191E+00  (-0.2038353E-01)
 number of electron     227.9999912 magnetization       0.0093932
 augmentation part       66.8267920 magnetization       0.3174046

 Broyden mixing:
  rms(total) = 0.92483E+00    rms(broyden)= 0.92480E+00
  rms(prec ) = 0.10388E+01
  weight for this iteration     100.00

 eigenvalues of (default mixing * dielectric matrix)
  average eigenvalue GAMMA=   0.4801
  1.0194  1.0194  0.7153  0.7153  0.4451  0.3436  0.3436  0.1327  0.1327  0.2495
  0.1646

 Free energy of the ion-electron system (eV)
  ---------------------------------------------------
  alpha Z        PSCENC =       349.72570236
  Ewald energy   TEWEN  =     93961.16591856
  -1/2 Hartree   DENC   =   -108540.74032178
  -exchange  EXHF       =         0.00000000
  -V(xc)+E(xc)   XCENC  =       544.62943615
  PAW double counting   =     12172.04381875   -12035.63316458
  entropy T*S    EENTRO =         0.02303881
  eigenvalues    EBANDS =     -2076.33278759
  atomic energy  EATOM  =     15376.83878752
  ---------------------------------------------------
  free energy    TOTEN  =      -248.27957180 eV

  energy without entropy =     -248.30261061  energy(sigma->0) =     -248.28725140


--------------------------------------------------------------------------------------------------------




----------------------------------------- Iteration    1(  17)  ---------------------------------------


    POTLOK:  cpu time    0.07: real time    0.07
    SETDIJ:  cpu time    0.01: real time    0.01
     EDDAV:  cpu time    3.88: real time    3.94
       DOS:  cpu time    0.00: real time    0.00
    CHARGE:  cpu time    0.11: real time    0.11
    MIXING:  cpu time    0.00: real time    0.00
    --------------------------------------------
      LOOP:  cpu time    4.08: real time    4.23

 eigenvalue-minimisations  :  1872
 total energy-change (2. order) : 0.2858917E+00  (-0.2868037E-01)
 number of electron     227.9999912 magnetization      -0.0990213
 augmentation part       66.9048223 magnetization       0.4323681

 Broyden mixing:
  rms(total) = 0.84353E+00    rms(broyden)= 0.84344E+00
  rms(prec ) = 0.96217E+00
  weight for this iteration     100.00

 eigenvalues of (default mixing * dielectric matrix)
  average eigenvalue GAMMA=   0.6230
  1.7684  1.7684  0.8743  0.8743  0.4146  0.4146  0.4050  0.1327  0.1327  0.1645
  0.2632  0.2632

 Free energy of the ion-electron system (eV)
  ---------------------------------------------------
  alpha Z        PSCENC =       349.72570236
  Ewald energy   TEWEN  =     93961.16591856
  -1/2 Hartree   DENC   =   -108543.75593194
  -exchange  EXHF       =         0.00000000
  -V(xc)+E(xc)   XCENC  =       545.82344142
  PAW double counting   =     12191.46376579   -12055.24662534
  entropy T*S    EENTRO =         0.04361118
  eigenvalues    EBANDS =     -2074.05234968
  atomic energy  EATOM  =     15376.83878752
  ---------------------------------------------------
  free energy    TOTEN  =      -247.99368014 eV

  energy without entropy =     -248.03729132  energy(sigma->0) =     -248.00821720


--------------------------------------------------------------------------------------------------------




----------------------------------------- Iteration    1(  18)  ---------------------------------------


    POTLOK:  cpu time    0.07: real time    0.07
    SETDIJ:  cpu time    0.01: real time    0.01
     EDDAV:  cpu time    4.50: real time    4.56
       DOS:  cpu time    0.00: real time    0.00
    CHARGE:  cpu time    0.11: real time    0.11
    MIXING:  cpu time    0.00: real time    0.00
    --------------------------------------------
      LOOP:  cpu time    4.70: real time    4.97

 eigenvalue-minimisations  :  1960
 total energy-change (2. order) : 0.1050707E+01  (-0.1498238E+00)
 number of electron     227.9999909 magnetization      -0.1401367
 augmentation part       67.2971605 magnetization       0.3320421

 Broyden mixing:
  rms(total) = 0.51129E+00    rms(broyden)= 0.51064E+00
  rms(prec ) = 0.62191E+00
  weight for this iteration     100.00

 eigenvalues of (default mixing * dielectric matrix)
  average eigenvalue GAMMA=   0.6252
  1.7267  1.7267  0.9894  0.9894  0.4988  0.4988  0.1327  0.1327  0.3623  0.3623
  0.1645  0.2790  0.2644

 Free energy of the ion-electron system (eV)
  ---------------------------------------------------
  alpha Z        PSCENC =       349.72570236
  Ewald energy   TEWEN  =     93961.16591856
  -1/2 Hartree   DENC   =   -108554.19457583
  -exchange  EXHF       =         0.00000000
  -V(xc)+E(xc)   XCENC  =       550.74376224
  PAW double counting   =     12271.68585660   -12135.58383580
  entropy T*S    EENTRO =         0.00300289
  eigenvalues    EBANDS =     -2067.32759161
  atomic energy  EATOM  =     15376.83878752
  ---------------------------------------------------
  free energy    TOTEN  =      -246.94297307 eV

  energy without entropy =     -246.94597596  energy(sigma->0) =     -246.94397403


--------------------------------------------------------------------------------------------------------




----------------------------------------- Iteration    1(  19)  ---------------------------------------


    POTLOK:  cpu time    0.08: real time    0.08
    SETDIJ:  cpu time    0.01: real time    0.01
     EDDAV:  cpu time    4.42: real time    4.43
       DOS:  cpu time    0.00: real time    0.00
    CHARGE:  cpu time    0.11: real time    0.11
    MIXING:  cpu time    0.00: real time    0.00
    --------------------------------------------
      LOOP:  cpu time    4.62: real time    4.77

 eigenvalue-minimisations  :  1848
 total energy-change (2. order) :-0.1927038E-01  (-0.8569519E-01)
 number of electron     227.9999913 magnetization      -0.1457315
 augmentation part       67.4665899 magnetization       0.2746130

 Broyden mixing:
  rms(total) = 0.47876E+00    rms(broyden)= 0.47854E+00
  rms(prec ) = 0.62625E+00
  weight for this iteration     100.00

 eigenvalues of (default mixing * dielectric matrix)
  average eigenvalue GAMMA=   0.6161
  1.6574  1.6574  1.0309  1.0309  0.5728  0.5728  0.3993  0.3993  0.1327  0.1327
  0.1645  0.3403  0.2675  0.2675

 Free energy of the ion-electron system (eV)
  ---------------------------------------------------
  alpha Z        PSCENC =       349.72570236
  Ewald energy   TEWEN  =     93961.16591856
  -1/2 Hartree   DENC   =   -108561.87154064
  -exchange  EXHF       =         0.00000000
  -V(xc)+E(xc)   XCENC  =       552.49281748
  PAW double counting   =     12307.00734851   -12170.63677962
  entropy T*S    EENTRO =         0.01707083
  eigenvalues    EBANDS =     -2061.70156845
  atomic energy  EATOM  =     15376.83878752
  ---------------------------------------------------
  free energy    TOTEN  =      -246.96224345 eV

  energy without entropy =     -246.97931428  energy(sigma->0) =     -246.96793372


--------------------------------------------------------------------------------------------------------




----------------------------------------- Iteration    1(  20)  ---------------------------------------


    POTLOK:  cpu time    0.07: real time    0.07
    SETDIJ:  cpu time    0.01: real time    0.01
     EDDAV:  cpu time    3.57: real time    3.59
       DOS:  cpu time    0.00: real time    0.00
    CHARGE:  cpu time    0.11: real time    0.12
    MIXING:  cpu time    0.00: real time    0.00
    --------------------------------------------
      LOOP:  cpu time    3.77: real time    3.90

 eigenvalue-minimisations  :  1840
 total energy-change (2. order) :-0.1601957E+00  (-0.3628753E-01)
 number of electron     227.9999907 magnetization      -0.1702076
 augmentation part       67.6274022 magnetization       0.2955029

 Broyden mixing:
  rms(total) = 0.49045E+00    rms(broyden)= 0.49025E+00
  rms(prec ) = 0.58435E+00
  weight for this iteration     100.00

 eigenvalues of (default mixing * dielectric matrix)
  average eigenvalue GAMMA=   0.6290
  1.6527  1.6527  1.2176  1.2176  0.6036  0.6036  0.4313  0.4313  0.1327  0.1327
  0.1645  0.3315  0.3315  0.2657  0.2657

 Free energy of the ion-electron system (eV)
  ---------------------------------------------------
  alpha Z        PSCENC =       349.72570236
  Ewald energy   TEWEN  =     93961.16591856
  -1/2 Hartree   DENC   =   -108556.29983797
  -exchange  EXHF       =         0.00000000
  -V(xc)+E(xc)   XCENC  =       553.45056348
  PAW double counting   =     12325.11104164   -12188.05873446
  entropy T*S    EENTRO =        -0.00563671
  eigenvalues    EBANDS =     -2069.05024355
  atomic energy  EATOM  =     15376.83878752
  ---------------------------------------------------
  free energy    TOTEN  =      -247.12243914 eV

  energy without entropy =     -247.11680243  energy(sigma->0) =     -247.12056024


--------------------------------------------------------------------------------------------------------




----------------------------------------- Iteration    1(  21)  ---------------------------------------


    POTLOK:  cpu time    0.07: real time    0.12
    SETDIJ:  cpu time    0.01: real time    0.02
     EDDAV:  cpu time    3.72: real time    3.88
       DOS:  cpu time    0.00: real time    0.00
    CHARGE:  cpu time    0.11: real time    0.11
    MIXING:  cpu time    0.01: real time    0.00
    --------------------------------------------
      LOOP:  cpu time    3.91: real time    4.34

 eigenvalue-minimisations  :  1816
 total energy-change (2. order) :-0.7914689E-01  (-0.2455304E-01)
 number of electron     227.9999905 magnetization      -0.1731996
 augmentation part       67.6501828 magnetization       0.1722475

 Broyden mixing:
  rms(total) = 0.48083E+00    rms(broyden)= 0.48066E+00
  rms(prec ) = 0.54592E+00
  weight for this iteration     100.00

 eigenvalues of (default mixing * dielectric matrix)
  average eigenvalue GAMMA=   0.5959
  1.6514  1.6514  1.2216  1.2216  0.5957  0.5957  0.4283  0.4283  0.1327  0.1327
  0.3016  0.3016  0.2753  0.2546  0.1645  0.1778

 Free energy of the ion-electron system (eV)
  ---------------------------------------------------
  alpha Z        PSCENC =       349.72570236
  Ewald energy   TEWEN  =     93961.16591856
  -1/2 Hartree   DENC   =   -108559.74763537
  -exchange  EXHF       =         0.00000000
  -V(xc)+E(xc)   XCENC  =       553.66003816
  PAW double counting   =     12338.28439500   -12201.52657519
  entropy T*S    EENTRO =        -0.00805867
  eigenvalues    EBANDS =     -2065.59415841
  atomic energy  EATOM  =     15376.83878752
  ---------------------------------------------------
  free energy    TOTEN  =      -247.20158603 eV

  energy without entropy =     -247.19352736  energy(sigma->0) =     -247.19889981


--------------------------------------------------------------------------------------------------------




----------------------------------------- Iteration    1(  22)  ---------------------------------------


    POTLOK:  cpu time    0.07: real time    0.07
    SETDIJ:  cpu time    0.01: real time    0.01
     EDDAV:  cpu time    3.10: real time    3.10
       DOS:  cpu time    0.00: real time    0.00
    CHARGE:  cpu time    0.11: real time    0.11
    MIXING:  cpu time    0.00: real time    0.00
    --------------------------------------------
      LOOP:  cpu time    3.30: real time    3.40

 eigenvalue-minimisations  :  1560
 total energy-change (2. order) :-0.2857277E-01  (-0.5694034E-02)
 number of electron     227.9999905 magnetization      -0.2008369
 augmentation part       67.6345397 magnetization       0.2069859

 Broyden mixing:
  rms(total) = 0.44683E+00    rms(broyden)= 0.44682E+00
  rms(prec ) = 0.51842E+00
  weight for this iteration     100.00

 eigenvalues of (default mixing * dielectric matrix)
  average eigenvalue GAMMA=   0.6323
  1.5545  1.5545  1.4296  1.4296  0.6360  0.6360  0.5409  0.5409  0.3941  0.3941
  0.1327  0.1327  0.1645  0.3363  0.3363  0.2679  0.2679

 Free energy of the ion-electron system (eV)
  ---------------------------------------------------
  alpha Z        PSCENC =       349.72570236
  Ewald energy   TEWEN  =     93961.16591856
  -1/2 Hartree   DENC   =   -108561.25308228
  -exchange  EXHF       =         0.00000000
  -V(xc)+E(xc)   XCENC  =       553.61095644
  PAW double counting   =     12339.30918583   -12202.65731763
  entropy T*S    EENTRO =        -0.00623359
  eigenvalues    EBANDS =     -2063.96407601
  atomic energy  EATOM  =     15376.83878752
  ---------------------------------------------------
  free energy    TOTEN  =      -247.23015880 eV

  energy without entropy =     -247.22392521  energy(sigma->0) =     -247.22808094


--------------------------------------------------------------------------------------------------------




----------------------------------------- Iteration    1(  23)  ---------------------------------------


    POTLOK:  cpu time    0.08: real time    0.08
    SETDIJ:  cpu time    0.01: real time    0.01
     EDDAV:  cpu time    3.72: real time    3.72
       DOS:  cpu time    0.00: real time    0.00
    CHARGE:  cpu time    0.11: real time    0.11
    MIXING:  cpu time    0.00: real time    0.01
    --------------------------------------------
      LOOP:  cpu time    3.92: real time    4.14

 eigenvalue-minimisations  :  1944
 total energy-change (2. order) :-0.1025929E+00  (-0.1107463E-01)
 number of electron     227.9999897 magnetization      -0.2017007
 augmentation part       67.6580244 magnetization      -0.3218196

 Broyden mixing:
  rms(total) = 0.66545E+00    rms(broyden)= 0.66480E+00
  rms(prec ) = 0.69488E+00
  weight for this iteration     100.00

 eigenvalues of (default mixing * dielectric matrix)
  average eigenvalue GAMMA=   0.6058
  1.5558  1.5558  1.4353  1.4353  0.6490  0.6490  0.5594  0.5594  0.4016  0.4016
  0.1327  0.1327  0.1645  0.3475  0.3475  0.2668  0.2668  0.0440

 Free energy of the ion-electron system (eV)
  ---------------------------------------------------
  alpha Z        PSCENC =       349.72570236
  Ewald energy   TEWEN  =     93961.16591856
  -1/2 Hartree   DENC   =   -108562.75299828
  -exchange  EXHF       =         0.00000000
  -V(xc)+E(xc)   XCENC  =       553.39667965
  PAW double counting   =     12345.90047874   -12209.69059544
  entropy T*S    EENTRO =        -0.01478905
  eigenvalues    EBANDS =     -2061.90193575
  atomic energy  EATOM  =     15376.83878752
  ---------------------------------------------------
  free energy    TOTEN  =      -247.33275169 eV

  energy without entropy =     -247.31796265  energy(sigma->0) =     -247.32782201


--------------------------------------------------------------------------------------------------------




----------------------------------------- Iteration    1(  24)  ---------------------------------------


    POTLOK:  cpu time    0.07: real time    0.07
    SETDIJ:  cpu time    0.01: real time    0.01
     EDDAV:  cpu time    2.74: real time    2.75
       DOS:  cpu time    0.00: real time    0.00
    CHARGE:  cpu time    0.11: real time    0.11
    MIXING:  cpu time    0.01: real time    0.01
    --------------------------------------------
      LOOP:  cpu time    2.94: real time    3.04

 eigenvalue-minimisations  :  1328
 total energy-change (2. order) :-0.1181082E-01  (-0.2472024E-02)
 number of electron     227.9999897 magnetization      -0.2081248
 augmentation part       67.6462670 magnetization      -0.3168650

 Broyden mixing:
  rms(total) = 0.63478E+00    rms(broyden)= 0.63475E+00
  rms(prec ) = 0.66416E+00
  weight for this iteration     100.00

 eigenvalues of (default mixing * dielectric matrix)
  average eigenvalue GAMMA=   0.6459
  1.5914  1.5914  1.5414  1.5414  0.8140  0.8140  0.6530  0.6530  0.4465  0.4465
  0.1327  0.1327  0.3604  0.3604  0.3368  0.2622  0.2622  0.1645  0.1674

 Free energy of the ion-electron system (eV)
  ---------------------------------------------------
  alpha Z        PSCENC =       349.72570236
  Ewald energy   TEWEN  =     93961.16591856
  -1/2 Hartree   DENC   =   -108563.04775398
  -exchange  EXHF       =         0.00000000
  -V(xc)+E(xc)   XCENC  =       553.34939083
  PAW double counting   =     12345.48492101   -12209.29953021
  entropy T*S    EENTRO =        -0.01622312
  eigenvalues    EBANDS =     -2061.54577548
  atomic energy  EATOM  =     15376.83878752
  ---------------------------------------------------
  free energy    TOTEN  =      -247.34456252 eV

  energy without entropy =     -247.32833939  energy(sigma->0) =     -247.33915481


--------------------------------------------------------------------------------------------------------




----------------------------------------- Iteration    1(  25)  ---------------------------------------


    POTLOK:  cpu time    0.07: real time    0.07
    SETDIJ:  cpu time    0.01: real time    0.01
     EDDAV:  cpu time    3.66: real time    3.66
       DOS:  cpu time    0.00: real time    0.00
    CHARGE:  cpu time    0.11: real time    0.11
    MIXING:  cpu time    0.01: real time    0.01
    --------------------------------------------
      LOOP:  cpu time    3.86: real time    3.96

 eigenvalue-minimisations  :  1904
 total energy-change (2. order) :-0.6938567E-01  (-0.7622734E-02)
 number of electron     227.9999896 magnetization      -0.2210054
 augmentation part       67.6347969 magnetization      -0.2251054

 Broyden mixing:
  rms(total) = 0.53987E+00    rms(broyden)= 0.53980E+00
  rms(prec ) = 0.56491E+00
  weight for this iteration     100.00

 eigenvalues of (default mixing * dielectric matrix)
  average eigenvalue GAMMA=   0.6904
  1.9278  1.9278  1.5155  1.5155  1.0076  1.0076  0.6878  0.6878  0.4902  0.4902
  0.1327  0.1327  0.3835  0.3835  0.3843  0.1645  0.2914  0.2617  0.2617  0.1549

 Free energy of the ion-electron system (eV)
  ---------------------------------------------------
  alpha Z        PSCENC =       349.72570236
  Ewald energy   TEWEN  =     93961.16591856
  -1/2 Hartree   DENC   =   -108562.87760193
  -exchange  EXHF       =         0.00000000
  -V(xc)+E(xc)   XCENC  =       553.01445103
  PAW double counting   =     12345.61701752   -12209.67100719
  entropy T*S    EENTRO =        -0.02075270
  eigenvalues    EBANDS =     -2061.20646336
  atomic energy  EATOM  =     15376.83878752
  ---------------------------------------------------
  free energy    TOTEN  =      -247.41394819 eV

  energy without entropy =     -247.39319548  energy(sigma->0) =     -247.40703062


--------------------------------------------------------------------------------------------------------




----------------------------------------- Iteration    1(  26)  ---------------------------------------


    POTLOK:  cpu time    0.07: real time    0.07
    SETDIJ:  cpu time    0.01: real time    0.01
     EDDAV:  cpu time    3.60: real time    3.61
       DOS:  cpu time    0.00: real time    0.00
    CHARGE:  cpu time    0.11: real time    0.11
    MIXING:  cpu time    0.01: real time    0.01
    --------------------------------------------
      LOOP:  cpu time    3.80: real time    3.89

 eigenvalue-minimisations  :  1872
 total energy-change (2. order) :-0.4285270E-01  (-0.1168459E-01)
 number of electron     227.9999897 magnetization      -0.2338252
 augmentation part       67.6049173 magnetization      -0.1019113

 Broyden mixing:
  rms(total) = 0.35111E+00    rms(broyden)= 0.35100E+00
  rms(prec ) = 0.36911E+00
  weight for this iteration     100.00

 eigenvalues of (default mixing * dielectric matrix)
  average eigenvalue GAMMA=   0.7080
  2.1075  2.1075  1.5052  1.5052  1.0833  1.0833  0.7060  0.7060  0.5301  0.5301
  0.4027  0.4027  0.3940  0.3940  0.1327  0.1327  0.3002  0.2616  0.2616  0.1645
  0.1562

 Free energy of the ion-electron system (eV)
  ---------------------------------------------------
  alpha Z        PSCENC =       349.72570236
  Ewald energy   TEWEN  =     93961.16591856
  -1/2 Hartree   DENC   =   -108565.91712366
  -exchange  EXHF       =         0.00000000
  -V(xc)+E(xc)   XCENC  =       552.81495105
  PAW double counting   =     12349.13094728   -12213.55545428
  entropy T*S    EENTRO =        -0.03231415
  eigenvalues    EBANDS =     -2057.62821556
  atomic energy  EATOM  =     15376.83878752
  ---------------------------------------------------
  free energy    TOTEN  =      -247.45680088 eV

  energy without entropy =     -247.42448673  energy(sigma->0) =     -247.44602950


--------------------------------------------------------------------------------------------------------




----------------------------------------- Iteration    1(  27)  ---------------------------------------


    POTLOK:  cpu time    0.07: real time    0.07
    SETDIJ:  cpu time    0.01: real time    0.01
     EDDAV:  cpu time    3.76: real time    3.78
       DOS:  cpu time    0.00: real time    0.00
    CHARGE:  cpu time    0.11: real time    0.11
    MIXING:  cpu time    0.01: real time    0.01
    --------------------------------------------
      LOOP:  cpu time    3.96: real time    4.09

 eigenvalue-minimisations  :  1960
 total energy-change (2. order) :-0.3402898E-01  (-0.7664814E-02)
 number of electron     227.9999897 magnetization      -0.2465012
 augmentation part       67.5794867 magnetization      -0.1112142

 Broyden mixing:
  rms(total) = 0.26883E+00    rms(broyden)= 0.26879E+00
  rms(prec ) = 0.28327E+00
  weight for this iteration     100.00

 eigenvalues of (default mixing * dielectric matrix)
  average eigenvalue GAMMA=   0.7539
  2.4902  2.4902  1.4124  1.4124  1.1645  1.1645  0.7074  0.7074  0.7238  0.7238
  0.4924  0.4924  0.4223  0.3888  0.3888  0.1327  0.1327  0.2959  0.2616  0.2616
  0.1645  0.1560

 Free energy of the ion-electron system (eV)
  ---------------------------------------------------
  alpha Z        PSCENC =       349.72570236
  Ewald energy   TEWEN  =     93961.16591856
  -1/2 Hartree   DENC   =   -108569.55770089
  -exchange  EXHF       =         0.00000000
  -V(xc)+E(xc)   XCENC  =       552.75551860
  PAW double counting   =     12353.46546434   -12218.22676229
  entropy T*S    EENTRO =        -0.03482051
  eigenvalues    EBANDS =     -2053.62293755
  atomic energy  EATOM  =     15376.83878752
  ---------------------------------------------------
  free energy    TOTEN  =      -247.49082987 eV

  energy without entropy =     -247.45600935  energy(sigma->0) =     -247.47922303


--------------------------------------------------------------------------------------------------------




----------------------------------------- Iteration    1(  28)  ---------------------------------------


    POTLOK:  cpu time    0.07: real time    0.07
    SETDIJ:  cpu time    0.01: real time    0.01
     EDDAV:  cpu time    3.71: real time    3.71
       DOS:  cpu time    0.00: real time    0.00
    CHARGE:  cpu time    0.11: real time    0.11
    MIXING:  cpu time    0.01: real time    0.01
    --------------------------------------------
      LOOP:  cpu time    3.91: real time    3.99

 eigenvalue-minimisations  :  1936
 total energy-change (2. order) :-0.5777390E-01  (-0.5034421E-02)
 number of electron     227.9999898 magnetization      -0.2604717
 augmentation part       67.5455270 magnetization      -0.0964372

 Broyden mixing:
  rms(total) = 0.16855E+00    rms(broyden)= 0.16849E+00
  rms(prec ) = 0.18117E+00
  weight for this iteration     100.00

 eigenvalues of (default mixing * dielectric matrix)
  average eigenvalue GAMMA=   0.7749
  2.5830  2.5830  1.4205  1.4205  1.1479  1.1479  0.8973  0.8973  0.7690  0.7690
  0.5495  0.5495  0.4503  0.4503  0.3900  0.3900  0.1327  0.1327  0.1645  0.2977
  0.2617  0.2617  0.1560

 Free energy of the ion-electron system (eV)
  ---------------------------------------------------
  alpha Z        PSCENC =       349.72570236
  Ewald energy   TEWEN  =     93961.16591856
  -1/2 Hartree   DENC   =   -108574.33383306
  -exchange  EXHF       =         0.00000000
  -V(xc)+E(xc)   XCENC  =       552.56485457
  PAW double counting   =     12357.13434099   -12222.33818455
  entropy T*S    EENTRO =        -0.03666571
  eigenvalues    EBANDS =     -2048.26952443
  atomic energy  EATOM  =     15376.83878752
  ---------------------------------------------------
  free energy    TOTEN  =      -247.54860376 eV

  energy without entropy =     -247.51193805  energy(sigma->0) =     -247.53638186


--------------------------------------------------------------------------------------------------------




----------------------------------------- Iteration    1(  29)  ---------------------------------------


    POTLOK:  cpu time    0.07: real time    0.07
    SETDIJ:  cpu time    0.01: real time    0.01
     EDDAV:  cpu time    3.73: real time    3.73
       DOS:  cpu time    0.00: real time    0.00
    CHARGE:  cpu time    0.11: real time    0.11
    MIXING:  cpu time    0.01: real time    0.01
    --------------------------------------------
      LOOP:  cpu time    3.93: real time    4.01

 eigenvalue-minimisations  :  1952
 total energy-change (2. order) :-0.4664279E-01  (-0.5714891E-02)
 number of electron     227.9999898 magnetization      -0.2644630
 augmentation part       67.5016943 magnetization      -0.0650493

 Broyden mixing:
  rms(total) = 0.82244E-01    rms(broyden)= 0.82129E-01
  rms(prec ) = 0.96792E-01
  weight for this iteration     100.00

 eigenvalues of (default mixing * dielectric matrix)
  average eigenvalue GAMMA=   0.7977
  2.8072  2.8072  1.4534  1.4534  1.1504  1.1504  0.9379  0.9379  0.8444  0.6844
  0.6844  0.5597  0.5597  0.1327  0.1327  0.4625  0.4625  0.3909  0.3909  0.1645
  0.2973  0.2617  0.2617  0.1560

 Free energy of the ion-electron system (eV)
  ---------------------------------------------------
  alpha Z        PSCENC =       349.72570236
  Ewald energy   TEWEN  =     93961.16591856
  -1/2 Hartree   DENC   =   -108578.66625641
  -exchange  EXHF       =         0.00000000
  -V(xc)+E(xc)   XCENC  =       552.42570540
  PAW double counting   =     12359.56266172   -12225.11339263
  entropy T*S    EENTRO =        -0.03689973
  eigenvalues    EBANDS =     -2043.49747334
  atomic energy  EATOM  =     15376.83878752
  ---------------------------------------------------
  free energy    TOTEN  =      -247.59524655 eV

  energy without entropy =     -247.55834682  energy(sigma->0) =     -247.58294664


--------------------------------------------------------------------------------------------------------




----------------------------------------- Iteration    1(  30)  ---------------------------------------


    POTLOK:  cpu time    0.07: real time    0.07
    SETDIJ:  cpu time    0.01: real time    0.01
     EDDAV:  cpu time    3.66: real time    3.66
       DOS:  cpu time    0.00: real time    0.00
    CHARGE:  cpu time    0.11: real time    0.11
    MIXING:  cpu time    0.01: real time    0.01
    --------------------------------------------
      LOOP:  cpu time    3.86: real time    3.94

 eigenvalue-minimisations  :  1904
 total energy-change (2. order) :-0.5123444E-01  (-0.3030202E-02)
 number of electron     227.9999898 magnetization      -0.2689499
 augmentation part       67.4865190 magnetization      -0.0714330

 Broyden mixing:
  rms(total) = 0.59586E-01    rms(broyden)= 0.59544E-01
  rms(prec ) = 0.74205E-01
  weight for this iteration     100.00

 eigenvalues of (default mixing * dielectric matrix)
  average eigenvalue GAMMA=   0.8120
  2.8938  2.8938  1.6549  1.3677  1.3677  1.1436  1.1436  0.7871  0.7871  0.7646
  0.7646  0.5575  0.5575  0.1327  0.1327  0.4864  0.4864  0.4568  0.3903  0.3903
  0.1645  0.2973  0.2617  0.2617  0.1560

 Free energy of the ion-electron system (eV)
  ---------------------------------------------------
  alpha Z        PSCENC =       349.72570236
  Ewald energy   TEWEN  =     93961.16591856
  -1/2 Hartree   DENC   =   -108579.16931118
  -exchange  EXHF       =         0.00000000
  -V(xc)+E(xc)   XCENC  =       552.26931429
  PAW double counting   =     12359.84479833   -12225.48072773
  entropy T*S    EENTRO =        -0.03706485
  eigenvalues    EBANDS =     -2042.80389829
  atomic energy  EATOM  =     15376.83878752
  ---------------------------------------------------
  free energy    TOTEN  =      -247.64648099 eV

  energy without entropy =     -247.60941614  energy(sigma->0) =     -247.63412604


--------------------------------------------------------------------------------------------------------




----------------------------------------- Iteration    1(  31)  ---------------------------------------


    POTLOK:  cpu time    0.08: real time    0.08
    SETDIJ:  cpu time    0.01: real time    0.01
     EDDAV:  cpu time    3.74: real time    3.74
       DOS:  cpu time    0.00: real time    0.00
    CHARGE:  cpu time    0.11: real time    0.11
    MIXING:  cpu time    0.01: real time    0.01
    --------------------------------------------
      LOOP:  cpu time    3.94: real time    4.04

 eigenvalue-minimisations  :  1960
 total energy-change (2. order) :-0.5855342E-01  (-0.1052149E-02)
 number of electron     227.9999897 magnetization      -0.2717021
 augmentation part       67.4789434 magnetization      -0.0796967

 Broyden mixing:
  rms(total) = 0.30952E-01    rms(broyden)= 0.30812E-01
  rms(prec ) = 0.36968E-01
  weight for this iteration     100.00

 eigenvalues of (default mixing * dielectric matrix)
  average eigenvalue GAMMA=   0.8285
[...]
     12     -20.1449      1.00000
     13     -20.0704      1.00000
     14     -20.0508      1.00000
     15     -20.0152      1.00000
     16     -20.0009      1.00000
     17     -19.9451      1.00000
     18     -19.8950      1.00000
     19     -19.8302      1.00000
     20     -19.8257      1.00000
     21     -19.8120      1.00000
     22     -19.7608      1.00000
     23     -19.7053      1.00000
     24     -19.0847      1.00000
     25      -9.7638      1.00000
     26      -9.3450      1.00000
     27      -9.1535      1.00000
     28      -9.1418      1.00000
     29      -9.0219      1.00000
     30      -9.0126      1.00000
     31      -8.9407      1.00000
     32      -8.9256      1.00000
     33      -8.8142      1.00000
     34      -8.6967      1.00000
     35      -8.5235      1.00000
     36      -8.3291      1.00000
     37      -8.2583      1.00000
     38      -8.2369      1.00000
     39      -8.1279      1.00000
     40      -7.9008      1.00000
     41      -7.8256      1.00000
     42      -7.7897      1.00000
     43      -7.7415      1.00000
     44      -7.6419      1.00000
     45      -7.6365      1.00000
     46      -7.6102      1.00000
     47      -7.5878      1.00000
     48      -7.5839      1.00000
     49      -7.5200      1.00000
     50      -7.4476      1.00000
     51      -7.4167      1.00000
     52      -7.3681      1.00000
     53      -7.3392      1.00000
     54      -7.3244      1.00000
     55      -7.2053      1.00000
     56      -7.1841      1.00000
     57      -7.0686      1.00000
     58      -7.0650      1.00000
     59      -7.0579      1.00000
     60      -6.9118      1.00000
     61      -6.9065      1.00000
     62      -6.8360      1.00000
     63      -6.7053      1.00000
     64      -6.5814      1.00000
     65      -6.5449      1.00000
     66      -6.5249      1.00000
     67      -6.5142      1.00000
     68      -6.4776      1.00000
     69      -6.4755      1.00000
     70      -6.4257      1.00000
     71      -6.3558      1.00000
     72      -6.2832      1.00000
     73      -6.1976      1.00000
     74      -6.1961      1.00000
     75      -6.1748      1.00000
     76      -6.1024      1.00000
     77      -6.0303      1.00000
     78      -5.9202      1.00000
     79      -5.8835      1.00000
     80      -5.8772      1.00000
     81      -5.8716      1.00000
     82      -5.7813      1.00000
     83      -5.7477      1.00000
     84      -5.7363      1.00000
     85      -5.6871      1.00000
     86      -5.6699      1.00000
     87      -5.5970      1.00000
     88      -5.5696      1.00000
     89      -5.4934      1.00000
     90      -5.4407      1.00000
     91      -5.3217      1.00000
     92      -5.2089      1.00000
     93      -5.2085      1.00000
     94      -5.0313      1.00000
     95      -4.9763      1.00000
     96      -4.8761      1.00000
     97      -4.8737      1.00000
     98      -4.8196      1.00000
     99      -4.7374      1.00000
    100      -4.6578      1.00000
    101      -4.5624      1.00000
    102      -4.5402      1.00000
    103      -4.3843      1.00000
    104      -4.3468      1.00000
    105      -4.1704      1.00000
    106      -4.1094      1.00000
    107      -4.0947      1.00000
    108      -3.9742      1.00000
    109      -3.9369      1.00000
    110      -3.8361      1.00000
    111      -3.7573      1.00000
    112      -3.7316      1.00000
    113      -3.5076      1.00015
    114      -3.4812      1.00030
    115      -2.8192      0.11665
    116      -2.0390     -0.00000
    117      -1.8666     -0.00000
    118      -1.7645     -0.00000
    119      -1.6942     -0.00000
    120      -1.6556     -0.00000
    121      -1.5478     -0.00000
    122      -1.5310     -0.00000
    123      -1.4490     -0.00000
    124      -1.3607     -0.00000
    125      -1.1168     -0.00000
    126      -0.8699     -0.00000
    127      -0.3985     -0.00000
    128      -0.1524     -0.00000
    129      -0.0244     -0.00000
    130       0.0102     -0.00000
    131       0.1190     -0.00000
    132       0.1375     -0.00000
    133       0.1383     -0.00000
    134       0.2465     -0.00000
    135       0.2884     -0.00000
    136       0.3416     -0.00000


--------------------------------------------------------------------------------------------------------


 soft charge-density along one line, spin component           1
         0         1         2         3         4         5         6         7         8         9
 total charge-density along one line
 
 soft charge-density along one line, spin component           2
         0         1         2         3         4         5         6         7         8         9
 total charge-density along one line
 
 pseudopotential strength for first ion, spin component:           1
 24.693   0.019  -0.000   0.134   0.185  -0.000   0.024   0.033
  0.019   0.025  -0.000   0.002   0.003  -0.000   0.000   0.001
 -0.000  -0.000  -7.382  -0.000   0.000  -0.182  -0.000   0.000
  0.134   0.002  -0.000  -7.233   0.017  -0.000  -0.159   0.002
  0.185   0.003   0.000   0.017  -7.391   0.000   0.002  -0.184
 -0.000  -0.000  -0.182  -0.000   0.000   0.171  -0.000   0.000
  0.024   0.000  -0.000  -0.159   0.002  -0.000   0.174   0.000
  0.033   0.001   0.000   0.002  -0.184   0.000   0.000   0.170
 pseudopotential strength for first ion, spin component:           2
 24.670   0.019  -0.000   0.137   0.170  -0.000   0.024   0.030
  0.019   0.025  -0.000   0.002   0.003  -0.000   0.000   0.001
 -0.000  -0.000  -7.243  -0.000   0.000  -0.160  -0.000   0.000
  0.137   0.002  -0.000  -7.372   0.048  -0.000  -0.181   0.007
  0.170   0.003   0.000   0.048  -7.252   0.000   0.007  -0.161
 -0.000  -0.000  -0.160  -0.000   0.000   0.174  -0.000   0.000
  0.024   0.000  -0.000  -0.181   0.007  -0.000   0.171   0.001
  0.030   0.001   0.000   0.007  -0.161   0.000   0.001   0.174
 total augmentation occupancy for first ion, spin component:           1
  1.878   0.405   0.000   0.065   0.077   0.000   0.055   0.084
  0.405   0.425   0.000  -0.295  -0.385   0.000   0.187   0.253
  0.000   0.000   1.690   0.000   0.000  -0.761   0.000   0.000
  0.065  -0.295   0.000   1.662   0.024   0.000  -0.723   0.061
  0.077  -0.385   0.000   0.024   1.646   0.000   0.062  -0.756
  0.000   0.000  -0.761   0.000   0.000   0.473   0.000   0.000
  0.055   0.187   0.000  -0.723   0.062   0.000   0.440  -0.041
  0.084   0.253   0.000   0.061  -0.756   0.000  -0.041   0.455
 total augmentation occupancy for first ion, spin component:           2
 -0.001   0.005   0.000   0.005  -0.018   0.000  -0.012   0.013
  0.005  -0.030   0.000  -0.019   0.057   0.000   0.034  -0.054
  0.000   0.000   0.112   0.000   0.000   0.027   0.000   0.000
  0.005  -0.019   0.000  -0.149   0.030   0.000  -0.040   0.009
 -0.018   0.057   0.000   0.030   0.112   0.000   0.003   0.024
  0.000   0.000   0.027   0.000   0.000  -0.058   0.000   0.000
 -0.012   0.034   0.000  -0.040   0.003   0.000   0.046  -0.010
  0.013  -0.054   0.000   0.009   0.024   0.000  -0.010  -0.053


------------------------ aborting loop because EDIFF is reached ----------------------------------------


    CHARGE:  cpu time    0.11: real time    0.11
    FORLOC:  cpu time    0.01: real time    0.01
    FORNL :  cpu time    1.30: real time    1.30
    STRESS:  cpu time    1.78: real time    1.78
    FORCOR:  cpu time    0.07: real time    0.07
    FORHAR:  cpu time    0.01: real time    0.02
    MIXING:  cpu time    0.00: real time    0.00

  FORCE on cell =-STRESS in cart. coord.  units (eV):
  Direction    XX          YY          ZZ          XY          YZ          ZX
  --------------------------------------------------------------------------------------
  Alpha Z   349.72570   349.72570   349.72570
  Ewald  102017.35039106791.02020************     0.00000     0.00000   -36.88285
  Hartree106399.61012109901.08382************    -0.00000    -0.00000   -65.13272
  E(xc)   -1113.36260 -1114.30129 -1113.64445    -0.00000    -0.00000    -0.02750
  Local  ************************211839.04863    -0.00000    -0.00000   104.71061
  n-local   250.76103   262.34815   245.41872     0.00000     0.00001     0.58418
  augment  1380.86003  1372.45384  1393.79414     0.00000    -0.00000    -0.61621
  Kinetic  3156.86676  3122.27033  3191.96868     0.00000    -0.00001    -2.66480
  Fock        0.00000     0.00000     0.00000     0.00000     0.00000     0.00000
  -------------------------------------------------------------------------------------
  Total     -24.35346     9.86753   -21.88578     0.00000     0.00000    -0.02928
  in kB     -43.32060    17.55263   -38.93103     0.00000     0.00000    -0.05209
  external pressure =      -21.57 kB  Pullay stress =        0.00 kB


 VOLUME and BASIS-vectors are now :
 -----------------------------------------------------------------------------
  energy-cutoff  :      367.69
  volume of cell :      900.69
      direct lattice vectors                 reciprocal lattice vectors
    10.308000000  0.000000000  0.000000000     0.097012029  0.000000000  0.000000000
     0.000000000  2.854000000  0.000000000     0.000000000  0.350385424  0.000000000
     0.000000000  0.000000000 30.616000000     0.000000000  0.000000000  0.032662660

  length of vectors
    10.308000000  2.854000000 30.616000000     0.097012029  0.350385424  0.032662660


 FORCES acting on ions
    electron-ion (+dipol)            ewald-force                    non-local-force                 convergence-correction
 -----------------------------------------------------------------------------------------------
   -.252E+03 0.772E-13 -.362E+03   0.279E+03 -.255E-13 0.383E+03   -.282E+02 0.567E-23 -.220E+02   0.170E-02 0.428E-13 -.110E-01
   0.264E+03 0.000E+00 -.838E+03   -.291E+03 -.244E-13 0.817E+03   0.282E+02 0.118E-22 0.207E+02   0.172E-02 -.395E-13 -.498E-02
   0.148E+03 -.642E-12 0.193E+04   -.173E+03 -.868E-14 -.195E+04   0.253E+02 -.582E-23 0.186E+02   0.120E-01 -.570E-14 0.273E-01
   -.263E+02 0.149E-12 0.194E+04   0.379E+02 0.637E-14 -.197E+04   -.117E+02 0.397E-22 0.292E+02   0.269E-01 0.592E-13 -.148E-01
   -.193E+03 -.478E-12 -.923E+03   0.214E+03 0.996E-14 0.897E+03   -.216E+02 0.138E-22 0.269E+02   0.832E-02 0.914E-13 -.325E-01
   0.184E+03 0.518E-12 -.295E+03   -.205E+03 0.106E-13 0.322E+03   0.220E+02 0.235E-22 -.284E+02   0.496E-02 0.808E-14 -.172E-01
   -.327E+03 -.856E-12 0.107E+04   0.353E+03 -.156E-13 -.105E+04   -.268E+02 -.403E-21 -.180E+02   -.865E-02 0.578E-13 -.377E-01
   -.232E+03 -.418E-12 -.173E+04   0.260E+03 0.121E-13 0.175E+04   -.280E+02 -.196E-22 -.211E+02   -.782E-02 -.164E-13 0.148E-01
   0.264E+03 0.108E-11 0.552E+03   -.291E+03 0.103E-13 -.572E+03   0.280E+02 -.665E-23 0.208E+02   0.200E-02 0.416E-13 -.190E-02
   -.196E+03 0.110E-12 0.489E+03   0.217E+03 0.161E-13 -.515E+03   -.219E+02 -.236E-22 0.275E+02   -.867E-02 0.437E-13 -.189E-01
   0.161E+03 0.270E-11 -.168E+04   -.182E+03 0.736E-14 0.171E+04   0.218E+02 0.202E-22 -.279E+02   -.240E-01 0.641E-14 -.216E-01
   0.245E+03 -.183E-11 0.112E+04   -.255E+03 0.713E-14 -.109E+04   0.986E+01 0.352E-22 -.303E+02   -.613E-02 -.514E-13 -.583E-01
   0.488E+02 -.199E-13 -.167E+02   -.569E+02 0.144E-13 0.123E+02   0.834E+01 -.612E-22 0.453E+01   -.712E-02 0.320E-13 -.999E-02
   -.519E+02 0.134E-12 -.117E+04   0.602E+02 0.144E-13 0.117E+04   -.856E+01 -.518E-23 -.497E+01   -.106E-01 -.295E-13 -.693E-02
   -.139E+03 0.428E-12 0.181E+04   0.147E+03 -.120E-13 -.183E+04   -.784E+01 0.163E-24 0.136E+02   -.143E-01 -.680E-14 0.123E-01
   0.106E+03 0.757E-12 0.892E+03   -.106E+03 -.805E-14 -.884E+03   0.135E+00 -.187E-22 -.799E+01   0.157E-02 0.864E-13 -.292E-01
   -.683E+02 0.123E-11 -.198E+04   0.688E+02 -.175E-13 0.200E+04   -.483E+00 -.982E-23 -.248E+02   0.172E-01 0.638E-14 0.797E-02
   0.112E+03 0.329E-12 -.199E+04   -.116E+03 0.105E-14 0.202E+04   0.409E+01 0.555E-22 -.331E+02   0.128E-01 0.518E-13 0.682E-02
   -.121E+03 0.697E-13 0.723E+03   0.123E+03 -.153E-13 -.730E+03   -.125E+01 0.513E-22 0.701E+01   0.252E-01 -.663E-14 -.311E-01
   0.442E+02 0.189E-12 0.144E+04   -.478E+02 0.444E-14 -.145E+04   0.354E+01 0.649E-22 0.833E+01   0.396E-01 -.291E-14 -.446E-02
   0.719E+02 0.797E-13 -.143E+04   -.801E+02 -.189E-14 0.142E+04   0.840E+01 -.936E-22 0.553E+01   0.376E-01 0.427E-15 -.321E-02
   -.444E+02 0.329E-12 0.197E+03   0.526E+02 -.848E-14 -.193E+03   -.850E+01 0.329E-23 -.441E+01   0.113E-01 -.207E-13 -.110E-01
   0.119E+03 0.737E-12 -.530E+03   -.124E+03 -.126E-13 0.538E+03   0.563E+01 -.741E-22 -.905E+01   -.371E-02 -.136E-13 -.118E-01
   -.124E+03 -.151E-11 -.666E+03   0.129E+03 -.111E-13 0.658E+03   -.566E+01 0.805E-22 0.770E+01   -.361E-02 0.550E-13 -.152E-01
   0.530E+02 -.299E-13 0.412E+03   -.523E+02 -.337E-14 -.412E+03   -.752E+00 -.128E-22 0.550E+00   0.939E-02 -.112E-13 -.372E-02
   0.142E+01 -.495E-12 -.182E+04   -.192E+01 -.660E-15 0.182E+04   0.616E+00 0.125E-22 0.569E+00   0.195E-01 -.561E-14 0.225E-01
   -.617E+02 -.916E-12 0.147E+04   0.616E+02 0.599E-14 -.147E+04   -.356E-01 -.549E-22 -.480E+00   0.248E-01 -.392E-14 0.178E-01
   0.979E+02 0.115E-12 0.196E+04   -.982E+02 -.118E-13 -.195E+04   0.286E+00 0.994E-22 -.402E+01   -.358E-01 0.820E-13 0.183E-01
   -.177E+02 -.256E-12 -.127E+04   0.177E+02 -.500E-14 0.127E+04   0.273E+00 0.679E-23 0.722E+00   -.819E-02 0.301E-13 -.224E-01
   0.128E+01 -.131E-13 -.127E+03   -.107E+01 -.540E-14 0.127E+03   -.257E+00 0.571E-22 -.772E+00   -.486E-02 0.208E-13 -.184E-01
   -.929E+02 -.523E-12 0.209E+04   0.920E+02 0.179E-13 -.209E+04   0.845E+00 0.213E-23 -.198E+01   -.457E-03 -.198E-13 0.324E-01
   0.368E+02 -.438E-12 -.119E+04   -.365E+02 -.164E-13 0.119E+04   -.686E+00 -.652E-23 0.245E+00   -.766E-02 0.922E-13 -.361E-02
   -.300E+02 0.522E-12 -.200E+03   0.296E+02 -.202E-13 0.201E+03   0.651E+00 -.116E-22 -.367E+00   -.561E-02 -.927E-13 -.976E-02
   -.241E+02 0.459E-12 0.346E+03   0.237E+02 -.177E-13 -.346E+03   0.364E+00 0.707E-23 0.968E+00   0.113E-01 -.507E-14 -.279E-01
   -.183E+01 -.103E-12 -.179E+04   0.188E+01 -.125E-13 0.179E+04   -.326E+00 0.366E-22 -.137E+00   0.171E-01 -.364E-13 -.525E-01
   0.497E+02 -.104E-11 0.160E+04   -.486E+02 -.428E-14 -.160E+04   -.113E+01 -.452E-22 -.328E+00   0.445E-02 -.102E-12 -.200E-01
 -----------------------------------------------------------------------------------------------
   0.538E+01 0.433E-12 0.471E+02   -.149E-12 -.120E-12 0.182E-11   -.552E+01 -.226E-21 -.467E+02   0.132E+00 0.339E-12 -.340E+00
 
 
 POSITION                                       TOTAL-FORCE (eV/Angst)
 -----------------------------------------------------------------------------------
      8.21445      0.00000     13.70923        -0.974043      0.000000     -0.791440
      2.09355      0.00000     16.90677         1.153267      0.000000      0.496032
      2.19927      0.00000      6.73770         0.020325      0.000000      0.028212
      8.61965      0.00000      7.29652        -0.028211      0.000000      0.039043
      8.70923      0.00000     17.40155        -0.839312     -0.000000      0.752457
      1.59877      0.00000     13.21445         0.747353     -0.000000     -0.952146
      2.95707      1.42700      8.76121         0.027577      0.000000      0.007488
      3.06045      1.42700     18.86323        -0.877446      0.000000     -0.572279
      7.24755      1.42700     11.75277         0.971783      0.000000      0.568202
      3.55523      1.42700     12.24755        -0.772278     -0.000000      0.792099
      6.75277      1.42700     18.36845         0.683268      0.000000     -0.879158
      6.82735      1.42700      8.54928        -0.018240      0.000000     -0.013307
      5.57869      0.00000     13.60615         0.227197     -0.000000      0.142526
      4.72931      0.00000     17.00985        -0.298600     -0.000000     -0.177110
      4.76350      0.00000      6.51831         0.021420     -0.000000     -0.028816
      8.78207      0.00000      9.79731         0.015896     -0.000000     -0.058867
      1.70185      0.00000     20.88669         0.001663     -0.000000     -1.244450
      8.60615      0.00000     20.03731         0.214597      0.000000     -1.270201
      1.62528      0.00000     10.61633        -0.013891     -0.000000     -0.017053
      0.44919      1.42700      8.46438        -0.049583      0.000000      0.007679
      0.42469      1.42700     18.76015         0.281082      0.000000      0.263371
      9.88331      1.42700     11.85585        -0.288264      0.000000      0.065904
      3.45215      1.42700     14.88331         0.166130     -0.000000     -0.463481
      6.85585      1.42700     15.73269        -0.176030      0.000000      0.092828
      8.60409      0.00000     11.72391        -0.061303     -0.000000      0.806791
      1.70391      0.00000     18.89209         0.138251     -0.000000      0.512025
      1.71125      0.00000      8.67757        -0.022578     -0.000000     -0.015595
      6.52094     -0.00000      7.40491        -0.008906     -0.000000      0.079741
      6.72391      0.00000     17.01191         0.330993      0.000000      0.335046
      3.58409      0.00000     13.60409        -0.054975     -0.000000     -0.094919
      3.49026      1.42700      6.72593        -0.021904      0.000000      0.035052
      3.45009      1.42700     16.87791        -0.431421     -0.000000      0.144510
      6.85791      1.42700     13.73809         0.282478     -0.000000      0.114118
      1.56991      1.42700     11.85791        -0.095328     -0.000000      1.122819
      8.73809      1.42700     18.75809        -0.260781      0.000000      0.130890
      8.85658      1.42700      8.55266         0.009813     -0.000000      0.041992
 -----------------------------------------------------------------------------------
    total drift:                               -0.010107      0.000000      0.007306


--------------------------------------------------------------------------------------------------------



  FREE ENERGIE OF THE ION-ELECTRON SYSTEM (eV)
  ---------------------------------------------------
  free  energy   TOTEN  =      -248.99707508 eV

  energy  without entropy=     -248.96402465  energy(sigma->0) =     -248.98605827
 
 d Force = 0.3194280E-03[ 0.720E-04, 0.567E-03]  d Energy = 0.2448425E-03 0.746E-04
 d Force =-0.1796593E+02[-0.180E+02,-0.180E+02]  d Ewald  =-0.1796593E+02-0.118E-05


--------------------------------------------------------------------------------------------------------


    POTLOK:  cpu time    0.09: real time    0.09


--------------------------------------------------------------------------------------------------------




--------------------------------------------------------------------------------------------------------


  
 reached required accuracy - stopping structural energy minimisation
     LOOP+:  cpu time   18.86: real time   20.00
    4ORBIT:  cpu time    0.00: real time    0.00

 total amount of memory used by VASP on root node    57954. kBytes
========================================================================

   base      :      30000. kBytes
   nonl-proj :       8368. kBytes
   fftplans  :       3122. kBytes
   grid      :       7776. kBytes
   one-center:        559. kBytes
   wavefun   :       8129. kBytes
 
  
  
 General timing and accounting informations for this job:
 ========================================================
  
                  Total CPU time used (sec):     1373.723
                            User time (sec):     1364.913
                          System time (sec):        8.811
                         Elapsed time (sec):     1439.047
  
                   Maximum memory used (kb):      136132.
                   Average memory used (kb):           0.
  
                          Minor page faults:        25938
                          Major page faults:            0
                 Voluntary context switches:        18733
