 vasp.5.3.3 18Dez12 (build May 12 2016 12:04:25) complex                        
  
 executed on             LinuxIFC date 2019.05.05  21:52:46
 running on   64 total cores
 distrk:  each k-point on   64 cores,    1 groups
 distr:  one band on NCORES_PER_BAND=   8 cores,    8 groups


--------------------------------------------------------------------------------------------------------


 INCAR:
 POTCAR:   PAW_PBE O_s 07Sep2000                  
 POTCAR:   PAW_PBE Mn 06Sep2000                   
 POTCAR:   PAW_PBE H 15Jun2001                    
 POTCAR:   PAW_PBE O_s 07Sep2000                  
  local pseudopotential read in
  atomic valenz-charges read in
  non local Contribution for L=           0  read in
    real space projection operators read in
  non local Contribution for L=           0  read in
    real space projection operators read in
  non local Contribution for L=           1  read in
    real space projection operators read in
  non local Contribution for L=           1  read in
    real space projection operators read in
    PAW grid and wavefunctions read in
 
   number of l-projection  operators is LMAX  =           4
   number of lm-projection operators is LMMAX =           8
 
 POTCAR:   PAW_PBE Mn 06Sep2000                   
  local pseudopotential read in
  partial core-charges read in
  atomic valenz-charges read in
  non local Contribution for L=           2  read in
    real space projection operators read in
  non local Contribution for L=           2  read in
    real space projection operators read in
  non local Contribution for L=           0  read in
    real space projection operators read in
  non local Contribution for L=           0  read in
    real space projection operators read in
  non local Contribution for L=           1  read in
    real space projection operators read in
  non local Contribution for L=           1  read in
    real space projection operators read in
    PAW grid and wavefunctions read in
 
   number of l-projection  operators is LMAX  =           6
   number of lm-projection operators is LMMAX =          18
 
 POTCAR:   PAW_PBE H 15Jun2001                    
  local pseudopotential read in
  atomic valenz-charges read in
  non local Contribution for L=           0  read in
    real space projection operators read in
  non local Contribution for L=           0  read in
    real space projection operators read in
  non local Contribution for L=           1  read in
    real space projection operators read in
    PAW grid and wavefunctions read in
 
   number of l-projection  operators is LMAX  =           3
   number of lm-projection operators is LMMAX =           5
 

 ----------------------------------------------------------------------------- 
|                                                                             |
|  ADVICE TO THIS USER RUNNING 'VASP/VAMP'   (HEAR YOUR MASTER'S VOICE ...):  |
|                                                                             |
|      You have a (more or less) 'large supercell' and for larger cells       |
|      it might be more efficient to use real space projection operators      |
|      So try LREAL= Auto  in the INCAR   file.                               |
|      Mind: If you want to do a very accurate calculations keep the          |
|      reciprocal projection scheme          (i.e. LREAL=.FALSE.)             |
|                                                                             |
 ----------------------------------------------------------------------------- 

 PAW_PBE O_s 07Sep2000                  :
 energy of atom  1       EATOM= -432.2909
 kinetic energy error for atom=    0.0182 (will be added to EATOM!!)
 PAW_PBE Mn 06Sep2000                   :
 energy of atom  2       EATOM= -416.8732
 kinetic energy error for atom=    0.0155 (will be added to EATOM!!)
 PAW_PBE H 15Jun2001                    :
 energy of atom  3       EATOM=  -12.4884
 kinetic energy error for atom=    0.0156 (will be added to EATOM!!)
 
 
 POSCAR: Mn12 O26 H  (P1) ~ POSCAR (VASP)        
  positions in direct lattice
  velocities in cartesian coordinates
  No initial velocities read in
 exchange correlation table for  LEXCH =        8
   RHO(1)=    0.500       N(1)  =     2000
   RHO(2)=  100.500       N(2)  =     4000
 


--------------------------------------------------------------------------------------------------------


 ion  position               nearest neighbor table
   1  0.000  0.500  0.348-  31 1.91  31 1.91  27 2.00
   2  0.000  0.500  0.566-  32 1.88  32 1.88  28 1.91
   3  0.000  0.500  0.784-  29 1.91
   4  0.500  0.803  0.156-  33 1.91  33 1.91  30 1.92
   5  0.500  0.197  0.156-  33 1.91  33 1.91  30 1.92
   6  0.500  0.805  0.391-  34 1.88  34 1.88  31 1.91
   7  0.500  0.195  0.391-  34 1.88  34 1.88  31 1.91
   8  0.500  0.805  0.609-  35 1.88  35 1.88  32 1.91
   9  0.500  0.195  0.609-  35 1.88  35 1.88  32 1.91
  10  0.000  0.500  0.210-  30 1.90  30 1.90  27 1.97
  11  0.000  0.500  0.434-  31 1.88  31 1.88  28 1.91
  12  0.000  0.500  0.651-  32 1.88  32 1.88  29 1.91
  13  0.000  0.000  0.235-  36 1.91  36 1.91  33 2.01
  14  0.000  0.000  0.458-  37 1.88  37 1.88  34 1.91
  15  0.000  0.000  0.675-  38 1.88  38 1.88  35 1.91
  16  0.500  0.304  0.278-  27 1.89  27 1.89  36 1.90
  17  0.500  0.696  0.278-  27 1.89  27 1.89  36 1.90
  18  0.500  0.305  0.500-  28 1.88  28 1.88  37 1.91
  19  0.500  0.695  0.500-  28 1.88  28 1.88  37 1.91
  20  0.500  0.305  0.717-  29 1.88  29 1.88  38 1.91
  21  0.500  0.695  0.717-  29 1.88  29 1.88  38 1.91
  22  0.000  0.000  0.324-  36 1.91  36 1.91  34 1.95
  23  0.000  0.000  0.542-  37 1.88  37 1.88  35 1.91
  24  0.000  0.000  0.760-  38 1.88  38 1.88
  25  0.500  0.500  0.105-  26 1.24  30 1.76
  26  0.405  0.405  0.068-  39 0.96  25 1.24
  27  0.000  0.500  0.278-  16 1.89  16 1.89  17 1.89  17 1.89  10 1.97   1 2.00
  28  0.000  0.500  0.500-  19 1.88  19 1.88  18 1.88  18 1.88   2 1.91  11 1.91
  29  0.000  0.500  0.717-  21 1.88  21 1.88  20 1.88  20 1.88   3 1.91  12 1.91
  30  0.500  0.500  0.166-  25 1.76  10 1.90  10 1.90   5 1.92   4 1.92
  31  0.500  0.500  0.391-  11 1.88  11 1.88   7 1.91   6 1.91   1 1.91   1 1.91
  32  0.500  0.500  0.609-   2 1.88   2 1.88  12 1.88  12 1.88   9 1.91   8 1.91
  33  0.000  0.000  0.165-   4 1.91   4 1.91   5 1.91   5 1.91  13 2.01
  34  0.000  0.000  0.391-   6 1.88   6 1.88   7 1.88   7 1.88  14 1.91  22 1.95
  35  0.000  0.000  0.609-   8 1.88   8 1.88   9 1.88   9 1.88  23 1.91  15 1.91
  36  0.500  0.000  0.280-  17 1.90  16 1.90  22 1.91  22 1.91  13 1.91  13 1.91
  37  0.500  0.000  0.500-  14 1.88  23 1.88  14 1.88  23 1.88  18 1.91  19 1.91
  38  0.500  0.000  0.717-  24 1.88  24 1.88  15 1.88  15 1.88  20 1.91  21 1.91
  39  0.304  0.304  0.045-  26 0.96
 
  LATTYP: Found a simple orthorhombic cell.
 ALAT       =     2.8699998900
 B/A-ratio  =     2.1779862019
 C/A-ratio  =    10.0182792969
  
  Lattice vectors:
  
 A1 = (   2.8699998900,   0.0000000000,   0.0000000000)
 A2 = (   0.0000000000,   6.2508201600,   0.0000000000)
 A3 = (   0.0000000000,   0.0000000000,  28.7524604800)


Analysis of symmetry for initial positions (statically):
=====================================================================
 Subroutine PRICEL returns:
 Original cell was already a primitive cell.
 

 Routine SETGRP: Setting up the symmetry group for a 
 simple orthorhombic supercell.


 Subroutine GETGRP returns: Found  1 space group operations
 (whereof  1 operations were pure point group operations)
 out of a pool of  8 trial point group operations.


The static configuration has the point symmetry C_1 .


Analysis of symmetry for dynamics (positions and initial velocities):
=====================================================================
 Subroutine PRICEL returns:
 Original cell was already a primitive cell.
 

 Routine SETGRP: Setting up the symmetry group for a 
 simple orthorhombic supercell.


 Subroutine GETGRP returns: Found  1 space group operations
 (whereof  1 operations were pure point group operations)
 out of a pool of  8 trial point group operations.


The dynamic configuration has the point symmetry C_1 .


Analysis of constrained symmetry for selective dynamics:
=====================================================================
 Subroutine PRICEL returns:
 Original cell was already a primitive cell.
 

 Routine SETGRP: Setting up the symmetry group for a 
 simple orthorhombic supercell.


 Subroutine GETGRP returns: Found  1 space group operations
 (whereof  1 operations were pure point group operations)
 out of a pool of  8 trial point group operations.


The constrained configuration has the point symmetry C_1 .


Analysis of magnetic symmetry:
=====================================================================

 Subroutine MAGSYM returns: Found  1 space group operations
 (whereof  1 operations were pure point group operations)
 out of a pool of  1 trial space group operations
 (whereof  1 operations were pure point group operations)
 and found also     1 'primitive' translations


The magnetic configuration has the point symmetry C_1 .


 irot  :   1
 --------------------------------------------------------------------
 isymop:   1   0   0
           0   1   0
           0   0   1

 gtrans:     0.0000000     0.0000000     0.0000000

 ptrans:     0.0000000     0.0000000     0.0000000
 rotmap:
 (   1->   1)  (   2->   2)  (   3->   3)  (   4->   4)  (   5->   5) 
 (   6->   6)  (   7->   7)  (   8->   8)  (   9->   9)  (  10->  10) 
 (  11->  11)  (  12->  12)  (  13->  13)  (  14->  14)  (  15->  15) 
 (  16->  16)  (  17->  17)  (  18->  18)  (  19->  19)  (  20->  20) 
 (  21->  21)  (  22->  22)  (  23->  23)  (  24->  24)  (  25->  25) 
 (  26->  26)  (  27->  27)  (  28->  28)  (  29->  29)  (  30->  30) 
 (  31->  31)  (  32->  32)  (  33->  33)  (  34->  34)  (  35->  35) 
 (  36->  36)  (  37->  37)  (  38->  38)  (  39->  39) 
 
 
 KPOINTS: Automatic mesh                          

Automatic generation of k-mesh.
Space group operators:
 irot       det(A)        alpha          n_x          n_y          n_z        tau_x        tau_y        tau_z
    1     1.000000     0.000000     1.000000     0.000000     0.000000     0.000000     0.000000     0.000000
 
 Subroutine IBZKPT returns following result:
 ===========================================
 
 Found      2 irreducible k-points:
 
 Following reciprocal coordinates:
            Coordinates               Weight
  0.000000  0.000000  0.000000      1.000000
  0.500000  0.000000  0.000000      1.000000
 
 Following cartesian coordinates:
            Coordinates               Weight
  0.000000  0.000000  0.000000      1.000000
  0.174216  0.000000  0.000000      1.000000
 


--------------------------------------------------------------------------------------------------------




 Dimension of arrays:
   k-points           NKPTS =      2   k-points in BZ     NKDIM =      2   number of bands    NBANDS=    144
   number of dos      NEDOS =    301   number of ions     NIONS =     39
   non local maximal  LDIM  =      6   non local SUM 2l+1 LMDIM =     18
   total plane-waves  NPLWV =  58800
   max r-space proj   IRMAX =      1   max aug-charges    IRDMAX=   4390
   dimension x,y,z NGX =    14 NGY =   30 NGZ =  140
   dimension x,y,z NGXF=    28 NGYF=   60 NGZF=  280
   support grid    NGXF=    28 NGYF=   60 NGZF=  280
   ions per type =              26  12   1
 NGX,Y,Z   is equivalent  to a cutoff of   8.11,  7.98,  8.09 a.u.
 NGXF,Y,Z  is equivalent  to a cutoff of  16.22, 15.96, 16.19 a.u.


 I would recommend the setting:
   dimension x,y,z NGX =    13 NGY =   29 NGZ =  135
 SYSTEM =  Mn12 O26 H  (P1) ~ POSCAR (VASP)        
 POSCAR =  Mn12 O26 H  (P1) ~ POSCAR (VASP)        

 Startparameter for this run:
   NWRITE =      1    write-flag & timer
   PREC   = normal    normal or accurate (medium, high low for compatibility)
   ISTART =      0    job   : 0-new  1-cont  2-samecut
   ICHARG =      2    charge: 1-file 2-atom 10-const
   ISPIN  =      2    spin polarized calculation?
   LNONCOLLINEAR =      F non collinear calculations
   LSORBIT =      F    spin-orbit coupling
   INIWAV =      1    electr: 0-lowe 1-rand  2-diag
   LASPH  =      F    aspherical Exc in radial PAW
   METAGGA=      F    non-selfconsistent MetaGGA calc.

 Electronic Relaxation 1
   ENCUT  =  367.7 eV  27.02 Ry    5.20 a.u.   4.49  9.77 44.95*2*pi/ulx,y,z
   ENINI  =  367.7     initial cutoff
   ENAUG  =  500.7 eV  augmentation charge cutoff
   NELM   =     60;   NELMIN=  2; NELMDL= -5     # of ELM steps 
   EDIFF  = 0.1E-03   stopping-criterion for ELM
   LREAL  =      F    real-space projection
   NLSPLINE    = F    spline interpolate recip. space projectors
   LCOMPAT=      F    compatible to vasp.4.4
   GGA_COMPAT  = T    GGA compatible to vasp.4.4-vasp.4.6
   LMAXPAW     = -100 max onsite density
   LMAXMIX     =    4 max onsite mixed and CHGCAR
   VOSKOWN=      1    Vosko Wilk Nusair interpolation
   ROPT   =    0.00000   0.00000   0.00000
 Ionic relaxation
   EDIFFG = 0.1E-02   stopping-criterion for IOM
   NSW    =    100    number of steps for IOM
   NBLOCK =      1;   KBLOCK =    100    inner block; outer block 
   IBRION =      2    ionic relax: 0-MD 1-quasi-New 2-CG
   NFREE  =      1    steps in history (QN), initial steepest desc. (CG)
   ISIF   =      2    stress and relaxation
   IWAVPR =     11    prediction:  0-non 1-charg 2-wave 3-comb
   ISYM   =      2    0-nonsym 1-usesym 2-fastsym
   LCORR  =      T    Harris-Foulkes like correction to forces

   POTIM  = 0.5000    time-step for ionic-motion
   TEIN   =    0.0    initial temperature
   TEBEG  =    0.0;   TEEND  =   0.0 temperature during run
   SMASS  =  -3.00    Nose mass-parameter (am)
   estimated Nose-frequenzy (Omega)   =  0.10E-29 period in steps =****** mass=  -0.188E-27a.u.
   SCALEE = 1.0000    scale energy and forces
   NPACO  =    256;   APACO  = 16.0  distance and # of slots for P.C.
   PSTRESS=    0.0 pullay stress

  Mass of Ions in am
   POMASS =  16.00 54.94  1.00
  Ionic Valenz
   ZVAL   =   6.00  7.00  1.00
  Atomic Wigner-Seitz radii
   RWIGS  =  -1.00 -1.00 -1.00
  virtual crystal weights 
   VCA    =   1.00  1.00  1.00
   NELECT =     241.0000    total number of electrons
   NUPDOWN=      -1.0000    fix difference up-down

 DOS related values:
   EMIN   =  10.00;   EMAX   =-10.00  energy-range for DOS
   EFERMI =   0.00
   ISMEAR =     1;   SIGMA  =   0.20  broadening in eV -4-tet -1-fermi 0-gaus

 Electronic relaxation 2 (details)
   IALGO  =     38    algorithm
   LDIAG  =      T    sub-space diagonalisation (order eigenvalues)
   LSUBROT=      T    optimize rotation matrix (better conditioning)
   TURBO    =      0    0=normal 1=particle mesh
   IRESTART =      0    0=no restart 2=restart with 2 vectors
   NREBOOT  =      0    no. of reboots
   NMIN     =      0    reboot dimension
   EREF     =   0.00    reference energy to select bands
   IMIX   =      4    mixing-type and parameters
     AMIX     =   0.40;   BMIX     =  1.00
     AMIX_MAG =   1.60;   BMIX_MAG =  1.00
     AMIN     =   0.10
     WC   =   100.;   INIMIX=   1;  MIXPRE=   1;  MAXMIX= -45

 Intra band minimization:
   WEIMIN = 0.0010     energy-eigenvalue tresh-hold
   EBREAK =  0.17E-06  absolut break condition
   DEPER  =   0.30     relativ break condition  

   TIME   =   0.40     timestep for ELM

  volume/ion in A,a.u.               =      13.23        89.25
  Fermi-wavevector in a.u.,A,eV,Ry     =   1.270328  2.400572 21.956174  1.613733
  Thomas-Fermi vector in A             =   2.403321
 
 Write flags
   LWAVE  =      F    write WAVECAR
   LCHARG =      F    write CHGCAR
   LVTOT  =      F    write LOCPOT, total local potential
   LVHAR  =      F    write LOCPOT, Hartree potential only
   LELF   =      F    write electronic localiz. function (ELF)
   LORBIT =      0    0 simple, 1 ext, 2 COOP (PROOUT)


 Dipole corrections
   LMONO  =      F    monopole corrections only (constant potential shift)
   LDIPOL =      F    correct potential (dipole corrections)
   IDIPOL =      0    1-x, 2-y, 3-z, 4-all directions 
   EPSILON=  1.0000000 bulk dielectric constant

 LDA+U is selected, type is set to LDAUTYPE =  2
   angular momentum for each species LDAUL =    -1    2   -1
   U (eV)           for each species LDAUU =   0.0  3.9  0.0
   J (eV)           for each species LDAUJ =   0.0  0.0  0.0
 Exchange correlation treatment:
   GGA     =    --    GGA type
   LEXCH   =     8    internal setting for exchange type
   VOSKOWN=      1    Vosko Wilk Nusair interpolation
   LHFCALC =     F    Hartree Fock is set to
   LHFONE  =     F    Hartree Fock one center treatment
   AEXX    =    0.0000 exact exchange contribution

 Linear response parameters
   LEPSILON=     F    determine dielectric tensor
   LRPA    =     F    only Hartree local field effects (RPA)
   LNABLA  =     F    use nabla operator in PAW spheres
   LVEL    =     F    velocity operator in full k-point grid
   LINTERFAST=   F  fast interpolation
   KINTER  =     0    interpolate to denser k-point grid
   CSHIFT  =0.1000    complex shift for real part using Kramers Kronig
   OMEGAMAX=  -1.0    maximum frequency
   DEG_THRESHOLD= 0.2000000E-02 threshold for treating states as degnerate
   RTIME   =    0.100 relaxation time in fs

 Orbital magnetization related:
   ORBITALMAG=     F  switch on orbital magnetization
   LCHIMAG   =     F  perturbation theory with respect to B field
   DQ        =  0.001000  dq finite difference perturbation B field



--------------------------------------------------------------------------------------------------------


 conjugate gradient relaxation of ions
   using selective dynamics as specified on POSCAR
 charge density and potential will be updated during run
 spin polarized calculation
 Variant of blocked Davidson
 Davidson routine will perform the subspace rotation
 perform sub-space diagonalisation
    after iterative eigenvector-optimisation
 modified Broyden-mixing scheme, WC =      100.0
 initial mixing is a Kerker type mixing with AMIX =  0.4000 and BMIX =      1.0000
 Hartree-type preconditioning will be used
 using additional bands           23
 reciprocal scheme for non local part
 use partial core corrections
 calculate Harris-corrections to forces 
   (improved forces if not selfconsistent)
 use gradient corrections 
 use of overlap-Matrix (Vanderbilt PP)
 Methfessel and Paxton  Order N= 1 SIGMA  =   0.20


--------------------------------------------------------------------------------------------------------


  energy-cutoff  :      367.69
  volume of cell :      515.81
      direct lattice vectors                 reciprocal lattice vectors
     2.869999890  0.000000000  0.000000000     0.348432069  0.000000000  0.000000000
     0.000000000  6.250820160  0.000000000     0.000000000  0.159979007  0.000000000
     0.000000000  0.000000000 28.752460480     0.000000000  0.000000000  0.034779632

  length of vectors
     2.869999890  6.250820160 28.752460480     0.348432069  0.159979007  0.034779632


 
 k-points in units of 2pi/SCALE and weight: Automatic mesh                          
   0.00000000  0.00000000  0.00000000       0.500
   0.17421603  0.00000000  0.00000000       0.500
 
 k-points in reciprocal lattice and weights: Automatic mesh                          
   0.00000000  0.00000000  0.00000000       0.500
   0.50000000  0.00000000  0.00000000       0.500
 
 position of ions in fractional coordinates (direct lattice) 
   0.00000000  0.50000000  0.34764862
   0.00000000  0.50000000  0.56625954
   0.00000000  0.50000000  0.78366076
   0.50000000  0.80309186  0.15646052
   0.50000000  0.19690816  0.15646052
   0.50000000  0.80478003  0.39129939
   0.50000000  0.19521999  0.39129939
   0.50000000  0.80478003  0.60870061
   0.50000000  0.19521999  0.60870061
   0.00000000  0.50000000  0.20978814
   0.00000000  0.50000000  0.43374043
   0.00000000  0.50000000  0.65114169
   0.00000000  0.00000000  0.23545983
   0.00000000  0.00000000  0.45755892
   0.00000000  0.00000000  0.67496015
   0.50000000  0.30385873  0.27834486
   0.50000000  0.69614133  0.27834486
   0.50000000  0.30478001  0.50000000
   0.50000000  0.69521997  0.50000000
   0.50000000  0.30478001  0.71740123
   0.50000000  0.69521997  0.71740123
   0.00000000  0.00000000  0.32358279
   0.00000000  0.00000000  0.54244108
   0.00000000  0.00000000  0.75984230
   0.50000000  0.50000000  0.10490531
   0.40500000  0.40499999  0.06810490
   0.00000000  0.50000000  0.27819404
   0.00000000  0.50000000  0.50000000
   0.00000000  0.50000000  0.71740123
   0.50000000  0.50000000  0.16622970
   0.50000000  0.50000000  0.39129939
   0.50000000  0.50000000  0.60870061
   0.00000000  0.00000000  0.16545389
   0.00000000  0.00000000  0.39129939
   0.00000000  0.00000000  0.60870061
   0.50000000  0.00000000  0.27954151
   0.50000000  0.00000000  0.50000000
   0.50000000  0.00000000  0.71740123
   0.30404999  0.30404999  0.04506810
 
 position of ions in cartesian coordinates  (Angst):
   0.00000000  3.12541008  9.99575321
   0.00000000  3.12541008 16.28135505
   0.00000000  3.12541008 22.53217503
   1.43499994  5.01998279  4.49862492
   1.43499994  1.23083750  4.49862492
   1.43499994  5.03053524 11.25082025
   1.43499994  1.22028505 11.25082025
   1.43499994  5.03053524 17.50164023
   1.43499994  1.22028505 17.50164023
   0.00000000  3.12541008  6.03192520
   0.00000000  3.12541008 12.47110457
   0.00000000  3.12541008 18.72192571
   0.00000000  0.00000000  6.77004946
   0.00000000  0.00000000 13.15594476
   0.00000000  0.00000000 19.40676504
   1.43499994  1.89936628  8.00309959
   1.43499994  4.35145426  8.00309959
   1.43499994  1.90512503 14.37623024
   1.43499994  4.34569500 14.37623024
   1.43499994  1.90512503 20.62705051
   1.43499994  4.34569500 20.62705051
   0.00000000  0.00000000  9.30380138
   0.00000000  0.00000000 15.59651572
   0.00000000  0.00000000 21.84733570
   1.43499994  3.12541008  3.01628578
   1.16234996  2.53158210  1.95818345
   0.00000000  3.12541008  7.99876314
   0.00000000  3.12541008 14.37623024
   0.00000000  3.12541008 20.62705051
   1.43499994  3.12541008  4.77951288
   1.43499994  3.12541008 11.25082025
   1.43499994  3.12541008 17.50164023
   0.00000000  0.00000000  4.75720643
   0.00000000  0.00000000 11.25082025
   0.00000000  0.00000000 17.50164023
   1.43499994  0.00000000  8.03750622
   1.43499994  0.00000000 14.37623024
   1.43499994  0.00000000 20.62705051
   0.87262344  1.90056181  1.29581876
 


--------------------------------------------------------------------------------------------------------


 k-point  1 :   0.0000 0.0000 0.0000  plane waves:    8319
 k-point  2 :   0.5000 0.0000 0.0000  plane waves:    8204

 maximum and minimum number of plane-waves per node :      1052     1021

 maximum number of plane-waves:      8319
 maximum index in each direction: 
   IXMAX=    4   IYMAX=    9   IZMAX=   44
   IXMIN=   -4   IYMIN=   -9   IZMIN=  -44

 WARNING: aliasing errors must be expected set NGX to  18 to avoid them
 WARNING: aliasing errors must be expected set NGY to  38 to avoid them
 WARNING: aliasing errors must be expected set NGZ to 178 to avoid them
 aliasing errors are usually negligible using standard VASP settings
 and one can safely disregard these warnings

 parallel 3D FFT for wavefunctions:
    minimum data exchange during FFTs selected (reduces bandwidth)
 parallel 3D FFT for charge:
    minimum data exchange during FFTs selected (reduces bandwidth)


 total amount of memory used by VASP on root node    35863. kBytes
========================================================================

   base      :      30000. kBytes
   nonl-proj :       1523. kBytes
   fftplans  :        772. kBytes
   grid      :       2160. kBytes
   one-center:        155. kBytes
   wavefun   :       1253. kBytes
 
 Broyden mixing: mesh for mixing (old mesh)
   NGX =  9   NGY = 19   NGZ = 89
  (NGX  = 28   NGY  = 60   NGZ  =280)
  gives a total of  15219 points

 initial charge density was supplied:
 charge density of overlapping atoms calculated
 number of electron     241.0000000 magnetization       0.0000000
 keeping initial charge density in first step


--------------------------------------------------------------------------------------------------------


 Maximum index for augmentation-charges          308 (set IRDMAX)


--------------------------------------------------------------------------------------------------------


 First call to EWALD:  gamma=   0.221
 Maximum number of real-space cells 7x 3x 1
 Maximum number of reciprocal cells 1x 2x 9

 FEWALD executed in parallel
    FEWALD:  cpu time    0.00: real time    0.00


----------------------------------------- Iteration    1(   1)  ---------------------------------------


    POTLOK:  cpu time    0.04: real time    0.04
    SETDIJ:  cpu time    0.01: real time    0.01
     EDDAV:  cpu time    0.49: real time    0.49
       DOS:  cpu time    0.00: real time    0.00
    --------------------------------------------
      LOOP:  cpu time    0.54: real time    0.60

 eigenvalue-minimisations  :  1152
 total energy-change (2. order) : 0.3182298E+04  (-0.8616826E+04)
 number of electron     241.0000000 magnetization      -0.0000000
 augmentation part      241.0000000 magnetization      -0.0000000

 Free energy of the ion-electron system (eV)
  ---------------------------------------------------
  alpha Z        PSCENC =       663.59213712
  Ewald energy   TEWEN  =     47450.18208092
  -1/2 Hartree   DENC   =    -63748.33022273
  -exchange  EXHF       =         0.00000000
  -V(xc)+E(xc)   XCENC  =       592.09768358
  PAW double counting   =     11490.07202038   -11334.42726148
  entropy T*S    EENTRO =         0.00581381
  eigenvalues    EBANDS =      1815.24896770
  atomic energy  EATOM  =     16253.85707884
  ---------------------------------------------------
  free energy    TOTEN  =      3182.29829814 eV

  energy without entropy =     3182.29248433  energy(sigma->0) =     3182.29636020


--------------------------------------------------------------------------------------------------------




----------------------------------------- Iteration    1(   2)  ---------------------------------------


     EDDAV:  cpu time    0.49: real time    0.49
       DOS:  cpu time    0.00: real time    0.00
    --------------------------------------------
      LOOP:  cpu time    0.49: real time    0.57

 eigenvalue-minimisations  :  1152
 total energy-change (2. order) :-0.2794967E+04  (-0.2680506E+04)
 number of electron     241.0000000 magnetization      -0.0000000
 augmentation part      241.0000000 magnetization      -0.0000000

 Free energy of the ion-electron system (eV)
  ---------------------------------------------------
  alpha Z        PSCENC =       663.59213712
  Ewald energy   TEWEN  =     47450.18208092
  -1/2 Hartree   DENC   =    -63748.33022273
  -exchange  EXHF       =         0.00000000
  -V(xc)+E(xc)   XCENC  =       592.09768358
  PAW double counting   =     11490.07202038   -11334.42726148
  entropy T*S    EENTRO =        -0.00595593
  eigenvalues    EBANDS =      -979.70583306
  atomic energy  EATOM  =     16253.85707884
  ---------------------------------------------------
  free energy    TOTEN  =       387.33172765 eV

  energy without entropy =      387.33768358  energy(sigma->0) =      387.33371296


--------------------------------------------------------------------------------------------------------




----------------------------------------- Iteration    1(   3)  ---------------------------------------


     EDDAV:  cpu time    0.64: real time    0.64
       DOS:  cpu time    0.00: real time    0.00
    --------------------------------------------
      LOOP:  cpu time    0.64: real time    0.86

 eigenvalue-minimisations  :  1680
 total energy-change (2. order) :-0.6707012E+03  (-0.6398781E+03)
 number of electron     241.0000000 magnetization      -0.0000000
 augmentation part      241.0000000 magnetization      -0.0000000

 Free energy of the ion-electron system (eV)
  ---------------------------------------------------
  alpha Z        PSCENC =       663.59213712
  Ewald energy   TEWEN  =     47450.18208092
  -1/2 Hartree   DENC   =    -63748.33022273
  -exchange  EXHF       =         0.00000000
  -V(xc)+E(xc)   XCENC  =       592.09768358
  PAW double counting   =     11490.07202038   -11334.42726148
  entropy T*S    EENTRO =        -0.00878899
  eigenvalues    EBANDS =     -1650.40415098
  atomic energy  EATOM  =     16253.85707884
  ---------------------------------------------------
  free energy    TOTEN  =      -283.36942333 eV

  energy without entropy =     -283.36063434  energy(sigma->0) =     -283.36649367


--------------------------------------------------------------------------------------------------------




----------------------------------------- Iteration    1(   4)  ---------------------------------------


     EDDAV:  cpu time    0.68: real time    0.68
       DOS:  cpu time    0.00: real time    0.00
    --------------------------------------------
      LOOP:  cpu time    0.68: real time    0.86

 eigenvalue-minimisations  :  1792
 total energy-change (2. order) :-0.6963896E+02  (-0.6782275E+02)
 number of electron     241.0000000 magnetization      -0.0000000
 augmentation part      241.0000000 magnetization      -0.0000000

 Free energy of the ion-electron system (eV)
  ---------------------------------------------------
  alpha Z        PSCENC =       663.59213712
  Ewald energy   TEWEN  =     47450.18208092
  -1/2 Hartree   DENC   =    -63748.33022273
  -exchange  EXHF       =         0.00000000
  -V(xc)+E(xc)   XCENC  =       592.09768358
  PAW double counting   =     11490.07202038   -11334.42726148
  entropy T*S    EENTRO =        -0.02374878
  eigenvalues    EBANDS =     -1720.02814693
  atomic energy  EATOM  =     16253.85707884
  ---------------------------------------------------
  free energy    TOTEN  =      -353.00837907 eV

  energy without entropy =     -352.98463029  energy(sigma->0) =     -353.00046281


--------------------------------------------------------------------------------------------------------




----------------------------------------- Iteration    1(   5)  ---------------------------------------


     EDDAV:  cpu time    0.67: real time    0.67
       DOS:  cpu time    0.00: real time    0.00
    CHARGE:  cpu time    0.02: real time    0.02
    MIXING:  cpu time    0.00: real time    0.00
    --------------------------------------------
      LOOP:  cpu time    0.70: real time    0.78

 eigenvalue-minimisations  :  1792
 total energy-change (2. order) :-0.2246748E+01  (-0.2208981E+01)
 number of electron     240.9999939 magnetization      -0.0227197
 augmentation part       67.6432371 magnetization       0.0348017

 Broyden mixing:
  rms(total) = 0.67809E+01    rms(broyden)= 0.67717E+01
  rms(prec ) = 0.71573E+01
  weight for this iteration     100.00

 Free energy of the ion-electron system (eV)
  ---------------------------------------------------
  alpha Z        PSCENC =       663.59213712
  Ewald energy   TEWEN  =     47450.18208092
  -1/2 Hartree   DENC   =    -63748.33022273
  -exchange  EXHF       =         0.00000000
  -V(xc)+E(xc)   XCENC  =       592.09768358
  PAW double counting   =     11490.07202038   -11334.42726148
  entropy T*S    EENTRO =        -0.02771245
  eigenvalues    EBANDS =     -1722.27093106
  atomic energy  EATOM  =     16253.85707884
  ---------------------------------------------------
  free energy    TOTEN  =      -355.25512688 eV

  energy without entropy =     -355.22741442  energy(sigma->0) =     -355.24588939


--------------------------------------------------------------------------------------------------------




----------------------------------------- Iteration    1(   6)  ---------------------------------------


    POTLOK:  cpu time    0.04: real time    0.04
    SETDIJ:  cpu time    0.01: real time    0.01
     EDDAV:  cpu time    0.76: real time    0.76
       DOS:  cpu time    0.00: real time    0.00
    CHARGE:  cpu time    0.02: real time    0.02
    MIXING:  cpu time    0.00: real time    0.00
    --------------------------------------------
      LOOP:  cpu time    0.83: real time    0.92

 eigenvalue-minimisations  :  2088
 total energy-change (2. order) :-0.7805278E+02  (-0.1846606E+03)
 number of electron     240.9999381 magnetization      -0.0243801
 augmentation part       85.3235400 magnetization      -0.0907636

 Broyden mixing:
  rms(total) = 0.12336E+02    rms(broyden)= 0.12332E+02
  rms(prec ) = 0.18977E+02
  weight for this iteration     100.00

 eigenvalues of (default mixing * dielectric matrix)
  average eigenvalue GAMMA=   0.3131
  0.3131

 Free energy of the ion-electron system (eV)
  ---------------------------------------------------
  alpha Z        PSCENC =       663.59213712
  Ewald energy   TEWEN  =     47450.18208092
  -1/2 Hartree   DENC   =    -63760.43021954
  -exchange  EXHF       =         0.00000000
  -V(xc)+E(xc)   XCENC  =       620.00437184
  PAW double counting   =     12522.25909557   -12358.23154704
  entropy T*S    EENTRO =         0.02814295
  eigenvalues    EBANDS =     -1824.56904670
  atomic energy  EATOM  =     16253.85707884
  ---------------------------------------------------
  free energy    TOTEN  =      -433.30790605 eV

  energy without entropy =     -433.33604900  energy(sigma->0) =     -433.31728703


--------------------------------------------------------------------------------------------------------




----------------------------------------- Iteration    1(   7)  ---------------------------------------


    POTLOK:  cpu time    0.04: real time    0.04
    SETDIJ:  cpu time    0.01: real time    0.01
     EDDAV:  cpu time    0.80: real time    0.80
       DOS:  cpu time    0.00: real time    0.00
    CHARGE:  cpu time    0.02: real time    0.02
    MIXING:  cpu time    0.00: real time    0.00
    --------------------------------------------
      LOOP:  cpu time    0.87: real time    0.97

 eigenvalue-minimisations  :  2216
 total energy-change (2. order) :-0.5034495E+03  (-0.8286936E+03)
 number of electron     240.9999472 magnetization      -0.0067124
 augmentation part       77.0687206 magnetization      -1.4600678

 Broyden mixing:
  rms(total) = 0.15637E+02    rms(broyden)= 0.15634E+02
  rms(prec ) = 0.30082E+02
  weight for this iteration     100.00

 eigenvalues of (default mixing * dielectric matrix)
  average eigenvalue GAMMA=   0.1972
  0.3239  0.0705

 Free energy of the ion-electron system (eV)
  ---------------------------------------------------
  alpha Z        PSCENC =       663.59213712
  Ewald energy   TEWEN  =     47450.18208092
  -1/2 Hartree   DENC   =    -64065.80968519
  -exchange  EXHF       =         0.00000000
  -V(xc)+E(xc)   XCENC  =       608.73628347
  PAW double counting   =     12598.51491584   -12461.37933461
  entropy T*S    EENTRO =        -0.02469810
  eigenvalues    EBANDS =     -1984.42616334
  atomic energy  EATOM  =     16253.85707884
  ---------------------------------------------------
  free energy    TOTEN  =      -936.75738504 eV

  energy without entropy =     -936.73268695  energy(sigma->0) =     -936.74915234


--------------------------------------------------------------------------------------------------------




----------------------------------------- Iteration    1(   8)  ---------------------------------------


    POTLOK:  cpu time    0.04: real time    0.04
    SETDIJ:  cpu time    0.01: real time    0.01
     EDDAV:  cpu time    0.67: real time    0.68
       DOS:  cpu time    0.00: real time    0.00
    CHARGE:  cpu time    0.02: real time    0.02
    MIXING:  cpu time    0.00: real time    0.00
    --------------------------------------------
      LOOP:  cpu time    0.74: real time    0.83

 eigenvalue-minimisations  :  1792
 total energy-change (2. order) : 0.6791421E+03  (-0.3929448E+03)
 number of electron     240.9999644 magnetization      -0.0069629
 augmentation part       72.6718976 magnetization       0.0298646

 Broyden mixing:
  rms(total) = 0.83892E+01    rms(broyden)= 0.83863E+01
  rms(prec ) = 0.12875E+02
  weight for this iteration     100.00

 eigenvalues of (default mixing * dielectric matrix)
  average eigenvalue GAMMA=   0.1779
  0.2985  0.1176  0.1176

 Free energy of the ion-electron system (eV)
  ---------------------------------------------------
  alpha Z        PSCENC =       663.59213712
  Ewald energy   TEWEN  =     47450.18208092
  -1/2 Hartree   DENC   =    -64163.92576544
  -exchange  EXHF       =         0.00000000
  -V(xc)+E(xc)   XCENC  =       597.82844433
  PAW double counting   =     12641.56069527   -12527.71507026
  entropy T*S    EENTRO =        -0.00481557
  eigenvalues    EBANDS =     -1172.99006826
  atomic energy  EATOM  =     16253.85707884
  ---------------------------------------------------
  free energy    TOTEN  =      -257.61528306 eV

  energy without entropy =     -257.61046748  energy(sigma->0) =     -257.61367786


--------------------------------------------------------------------------------------------------------




----------------------------------------- Iteration    1(   9)  ---------------------------------------


    POTLOK:  cpu time    0.04: real time    0.04
    SETDIJ:  cpu time    0.01: real time    0.01
     EDDAV:  cpu time    0.69: real time    0.70
       DOS:  cpu time    0.00: real time    0.00
    CHARGE:  cpu time    0.02: real time    0.02
    MIXING:  cpu time    0.00: real time    0.00
    --------------------------------------------
      LOOP:  cpu time    0.76: real time    0.85

 eigenvalue-minimisations  :  1872
 total energy-change (2. order) : 0.3027723E+01  (-0.8742027E+02)
 number of electron     240.9999829 magnetization      -0.0180530
 augmentation part       67.9239472 magnetization       0.0795571

 Broyden mixing:
  rms(total) = 0.39675E+01    rms(broyden)= 0.39595E+01
  rms(prec ) = 0.47592E+01
  weight for this iteration     100.00

 eigenvalues of (default mixing * dielectric matrix)
  average eigenvalue GAMMA=   0.2611
  0.6105  0.2458  0.0940  0.0940

 Free energy of the ion-electron system (eV)
  ---------------------------------------------------
  alpha Z        PSCENC =       663.59213712
  Ewald energy   TEWEN  =     47450.18208092
  -1/2 Hartree   DENC   =    -63886.34492353
  -exchange  EXHF       =         0.00000000
  -V(xc)+E(xc)   XCENC  =       596.13724507
  PAW double counting   =     12666.35804370   -12556.01447197
  entropy T*S    EENTRO =        -0.03563538
  eigenvalues    EBANDS =     -1442.31911494
  atomic energy  EATOM  =     16253.85707884
  ---------------------------------------------------
  free energy    TOTEN  =      -254.58756017 eV

  energy without entropy =     -254.55192479  energy(sigma->0) =     -254.57568171


--------------------------------------------------------------------------------------------------------




----------------------------------------- Iteration    1(  10)  ---------------------------------------


    POTLOK:  cpu time    0.04: real time    0.04
    SETDIJ:  cpu time    0.01: real time    0.01
     EDDAV:  cpu time    0.69: real time    0.69
       DOS:  cpu time    0.00: real time    0.00
    CHARGE:  cpu time    0.02: real time    0.02
    MIXING:  cpu time    0.00: real time    0.00
    --------------------------------------------
      LOOP:  cpu time    0.76: real time    0.84

 eigenvalue-minimisations  :  1848
 total energy-change (2. order) :-0.5835914E+01  (-0.1855532E+02)
 number of electron     240.9999835 magnetization      -0.0260283
 augmentation part       68.1305379 magnetization       0.1681572

 Broyden mixing:
  rms(total) = 0.31687E+01    rms(broyden)= 0.31664E+01
  rms(prec ) = 0.33854E+01
  weight for this iteration     100.00

 eigenvalues of (default mixing * dielectric matrix)
  average eigenvalue GAMMA=   0.2787
  0.6911  0.2551  0.2551  0.0962  0.0962

 Free energy of the ion-electron system (eV)
  ---------------------------------------------------
  alpha Z        PSCENC =       663.59213712
  Ewald energy   TEWEN  =     47450.18208092
  -1/2 Hartree   DENC   =    -63892.52625038
  -exchange  EXHF       =         0.00000000
  -V(xc)+E(xc)   XCENC  =       598.68541604
  PAW double counting   =     12817.90068990   -12708.28796345
  entropy T*S    EENTRO =         0.02842850
  eigenvalues    EBANDS =     -1443.85509151
  atomic energy  EATOM  =     16253.85707884
  ---------------------------------------------------
  free energy    TOTEN  =      -260.42347401 eV

  energy without entropy =     -260.45190251  energy(sigma->0) =     -260.43295018


--------------------------------------------------------------------------------------------------------




----------------------------------------- Iteration    1(  11)  ---------------------------------------


    POTLOK:  cpu time    0.04: real time    0.04
    SETDIJ:  cpu time    0.01: real time    0.01
     EDDAV:  cpu time    0.74: real time    0.74
       DOS:  cpu time    0.00: real time    0.00
    CHARGE:  cpu time    0.02: real time    0.02
    MIXING:  cpu time    0.00: real time    0.00
    --------------------------------------------
      LOOP:  cpu time    0.80: real time    1.01

 eigenvalue-minimisations  :  2008
 total energy-change (2. order) : 0.7243649E+00  (-0.2537514E+01)
 number of electron     240.9999857 magnetization      -0.0185114
 augmentation part       68.2390303 magnetization      -0.0177767

 Broyden mixing:
  rms(total) = 0.26239E+01    rms(broyden)= 0.26232E+01
  rms(prec ) = 0.28315E+01
  weight for this iteration     100.00

 eigenvalues of (default mixing * dielectric matrix)
  average eigenvalue GAMMA=   0.2937
  0.6345  0.3696  0.3696  0.1954  0.0965  0.0965

 Free energy of the ion-electron system (eV)
  ---------------------------------------------------
  alpha Z        PSCENC =       663.59213712
  Ewald energy   TEWEN  =     47450.18208092
  -1/2 Hartree   DENC   =    -63887.20798190
  -exchange  EXHF       =         0.00000000
  -V(xc)+E(xc)   XCENC  =       600.66545015
  PAW double counting   =     12920.91570246   -12810.32669419
  entropy T*S    EENTRO =         0.01201285
  eigenvalues    EBANDS =     -1451.38889541
  atomic energy  EATOM  =     16253.85707884
  ---------------------------------------------------
  free energy    TOTEN  =      -259.69910916 eV

  energy without entropy =     -259.71112201  energy(sigma->0) =     -259.70311344


--------------------------------------------------------------------------------------------------------




----------------------------------------- Iteration    1(  12)  ---------------------------------------


    POTLOK:  cpu time    0.04: real time    0.04
    SETDIJ:  cpu time    0.01: real time    0.01
     EDDAV:  cpu time    0.74: real time    0.74
       DOS:  cpu time    0.00: real time    0.00
    CHARGE:  cpu time    0.02: real time    0.02
    MIXING:  cpu time    0.00: real time    0.00
    --------------------------------------------
      LOOP:  cpu time    0.81: real time    1.01

 eigenvalue-minimisations  :  2016
 total energy-change (2. order) :-0.5443112E-01  (-0.3791433E+00)
 number of electron     240.9999841 magnetization      -0.0217559
 augmentation part       68.4652029 magnetization       0.0808948

 Broyden mixing:
  rms(total) = 0.23988E+01    rms(broyden)= 0.23984E+01
  rms(prec ) = 0.26073E+01
  weight for this iteration     100.00

 eigenvalues of (default mixing * dielectric matrix)
  average eigenvalue GAMMA=   0.2960
  0.6080  0.4457  0.4457  0.0957  0.0957  0.1907  0.1907

 Free energy of the ion-electron system (eV)
  ---------------------------------------------------
  alpha Z        PSCENC =       663.59213712
  Ewald energy   TEWEN  =     47450.18208092
  -1/2 Hartree   DENC   =    -63904.45111379
  -exchange  EXHF       =         0.00000000
  -V(xc)+E(xc)   XCENC  =       602.00345698
  PAW double counting   =     12978.19914793   -12866.77234316
  entropy T*S    EENTRO =        -0.00426360
  eigenvalues    EBANDS =     -1436.35972152
  atomic energy  EATOM  =     16253.85707884
  ---------------------------------------------------
  free energy    TOTEN  =      -259.75354028 eV

  energy without entropy =     -259.74927668  energy(sigma->0) =     -259.75211908


--------------------------------------------------------------------------------------------------------




----------------------------------------- Iteration    1(  13)  ---------------------------------------


    POTLOK:  cpu time    0.04: real time    0.04
    SETDIJ:  cpu time    0.01: real time    0.01
     EDDAV:  cpu time    0.75: real time    0.75
       DOS:  cpu time    0.00: real time    0.00
    CHARGE:  cpu time    0.02: real time    0.02
    MIXING:  cpu time    0.00: real time    0.00
    --------------------------------------------
      LOOP:  cpu time    0.82: real time    0.90

 eigenvalue-minimisations  :  1976
 total energy-change (2. order) : 0.3861538E-01  (-0.1402333E+00)
 number of electron     240.9999839 magnetization      -0.0661683
 augmentation part       68.5970447 magnetization       0.2480069

 Broyden mixing:
  rms(total) = 0.21280E+01    rms(broyden)= 0.21280E+01
  rms(prec ) = 0.23282E+01
  weight for this iteration     100.00

 eigenvalues of (default mixing * dielectric matrix)
  average eigenvalue GAMMA=   0.3712
  0.7261  0.7261  0.5664  0.2706  0.2706  0.0960  0.0960  0.2174

 Free energy of the ion-electron system (eV)
  ---------------------------------------------------
  alpha Z        PSCENC =       663.59213712
  Ewald energy   TEWEN  =     47450.18208092
  -1/2 Hartree   DENC   =    -63903.16604492
  -exchange  EXHF       =         0.00000000
  -V(xc)+E(xc)   XCENC  =       603.01584377
  PAW double counting   =     13012.07818899   -12899.95673433
  entropy T*S    EENTRO =        -0.02654975
  eigenvalues    EBANDS =     -1439.29092555
  atomic energy  EATOM  =     16253.85707884
  ---------------------------------------------------
  free energy    TOTEN  =      -259.71492491 eV

  energy without entropy =     -259.68837516  energy(sigma->0) =     -259.70607499


--------------------------------------------------------------------------------------------------------




----------------------------------------- Iteration    1(  14)  ---------------------------------------


    POTLOK:  cpu time    0.04: real time    0.04
    SETDIJ:  cpu time    0.01: real time    0.01
     EDDAV:  cpu time    0.78: real time    0.78
       DOS:  cpu time    0.00: real time    0.00
    CHARGE:  cpu time    0.02: real time    0.02
    MIXING:  cpu time    0.00: real time    0.00
    --------------------------------------------
      LOOP:  cpu time    0.85: real time    1.05

 eigenvalue-minimisations  :  2160
 total energy-change (2. order) : 0.2121008E+00  (-0.2910432E+00)
 number of electron     240.9999797 magnetization      -0.1168689
 augmentation part       69.2400223 magnetization       0.4476910

 Broyden mixing:
  rms(total) = 0.15688E+01    rms(broyden)= 0.15680E+01
  rms(prec ) = 0.19453E+01
  weight for this iteration     100.00

 eigenvalues of (default mixing * dielectric matrix)
  average eigenvalue GAMMA=   0.4006
  0.8978  0.8978  0.5033  0.3367  0.3367  0.0960  0.0960  0.2207  0.2207

 Free energy of the ion-electron system (eV)
  ---------------------------------------------------
  alpha Z        PSCENC =       663.59213712
  Ewald energy   TEWEN  =     47450.18208092
  -1/2 Hartree   DENC   =    -63910.33963867
  -exchange  EXHF       =         0.00000000
  -V(xc)+E(xc)   XCENC  =       606.55437678
  PAW double counting   =     13123.83185925   -13009.19059142
  entropy T*S    EENTRO =         0.00223596
  eigenvalues    EBANDS =     -1437.99236285
  atomic energy  EATOM  =     16253.85707884
  ---------------------------------------------------
  free energy    TOTEN  =      -259.50282408 eV

  energy without entropy =     -259.50506003  energy(sigma->0) =     -259.50356940


--------------------------------------------------------------------------------------------------------




----------------------------------------- Iteration    1(  15)  ---------------------------------------


    POTLOK:  cpu time    0.04: real time    0.04
    SETDIJ:  cpu time    0.01: real time    0.01
     EDDAV:  cpu time    0.78: real time    0.78
       DOS:  cpu time    0.00: real time    0.00
    CHARGE:  cpu time    0.02: real time    0.02
    MIXING:  cpu time    0.00: real time    0.00
    --------------------------------------------
      LOOP:  cpu time    0.85: real time    1.05

 eigenvalue-minimisations  :  2160
 total energy-change (2. order) : 0.6095088E+00  (-0.1951147E+00)
 number of electron     240.9999784 magnetization      -0.2003196
 augmentation part       69.7152337 magnetization       0.3866878

 Broyden mixing:
  rms(total) = 0.11749E+01    rms(broyden)= 0.11745E+01
  rms(prec ) = 0.16626E+01
  weight for this iteration     100.00

 eigenvalues of (default mixing * dielectric matrix)
  average eigenvalue GAMMA=   0.4882
  1.2361  1.2361  0.4887  0.4887  0.4346  0.0960  0.0960  0.2736  0.2736  0.2588

 Free energy of the ion-electron system (eV)
  ---------------------------------------------------
  alpha Z        PSCENC =       663.59213712
  Ewald energy   TEWEN  =     47450.18208092
  -1/2 Hartree   DENC   =    -63914.74944931
  -exchange  EXHF       =         0.00000000
  -V(xc)+E(xc)   XCENC  =       609.96257487
  PAW double counting   =     13213.24212267   -13096.58770903
  entropy T*S    EENTRO =        -0.02810548
  eigenvalues    EBANDS =     -1438.36404590
  atomic energy  EATOM  =     16253.85707884
  ---------------------------------------------------
  free energy    TOTEN  =      -258.89331530 eV

  energy without entropy =     -258.86520982  energy(sigma->0) =     -258.88394681


--------------------------------------------------------------------------------------------------------




----------------------------------------- Iteration    1(  16)  ---------------------------------------


    POTLOK:  cpu time    0.04: real time    0.04
    SETDIJ:  cpu time    0.01: real time    0.01
     EDDAV:  cpu time    0.76: real time    0.76
       DOS:  cpu time    0.00: real time    0.00
    CHARGE:  cpu time    0.02: real time    0.02
    MIXING:  cpu time    0.00: real time    0.00
    --------------------------------------------
      LOOP:  cpu time    0.83: real time    1.03

 eigenvalue-minimisations  :  2088
 total energy-change (2. order) : 0.1466206E+01  (-0.2148509E+00)
 number of electron     240.9999766 magnetization      -0.2579749
 augmentation part       70.3614763 magnetization       0.7905341

 Broyden mixing:
  rms(total) = 0.85660E+00    rms(broyden)= 0.85540E+00
  rms(prec ) = 0.12528E+01
  weight for this iteration     100.00

 eigenvalues of (default mixing * dielectric matrix)
  average eigenvalue GAMMA=   0.4832
  1.3214  1.3214  0.5249  0.5249  0.4183  0.0960  0.0960  0.2850  0.2850  0.2210
  0.2210

 Free energy of the ion-electron system (eV)
  ---------------------------------------------------
  alpha Z        PSCENC =       663.59213712
  Ewald energy   TEWEN  =     47450.18208092
  -1/2 Hartree   DENC   =    -63905.30955454
  -exchange  EXHF       =         0.00000000
  -V(xc)+E(xc)   XCENC  =       615.67368497
  PAW double counting   =     13349.41498968   -13229.79774495
  entropy T*S    EENTRO =         0.03934167
  eigenvalues    EBANDS =     -1455.07912261
  atomic energy  EATOM  =     16253.85707884
  ---------------------------------------------------
  free energy    TOTEN  =      -257.42710890 eV

  energy without entropy =     -257.46645057  energy(sigma->0) =     -257.44022279


--------------------------------------------------------------------------------------------------------




----------------------------------------- Iteration    1(  17)  ---------------------------------------


    POTLOK:  cpu time    0.04: real time    0.04
    SETDIJ:  cpu time    0.01: real time    0.01
     EDDAV:  cpu time    0.72: real time    0.72
       DOS:  cpu time    0.00: real time    0.00
    CHARGE:  cpu time    0.02: real time    0.02
    MIXING:  cpu time    0.00: real time    0.00
    --------------------------------------------
      LOOP:  cpu time    0.79: real time    0.87

 eigenvalue-minimisations  :  1912
 total energy-change (2. order) : 0.8236492E+00  (-0.1242400E+00)
 number of electron     240.9999759 magnetization      -0.2720147
 augmentation part       70.6084159 magnetization       0.6103679

 Broyden mixing:
  rms(total) = 0.70595E+00    rms(broyden)= 0.70532E+00
  rms(prec ) = 0.10038E+01
  weight for this iteration     100.00

 eigenvalues of (default mixing * dielectric matrix)
  average eigenvalue GAMMA=   0.4874
  1.3555  1.3555  0.5295  0.5295  0.3442  0.3442  0.3974  0.0960  0.0960  0.2643
  0.2682  0.2682

 Free energy of the ion-electron system (eV)
  ---------------------------------------------------
  alpha Z        PSCENC =       663.59213712
  Ewald energy   TEWEN  =     47450.18208092
  -1/2 Hartree   DENC   =    -63915.72254042
  -exchange  EXHF       =         0.00000000
  -V(xc)+E(xc)   XCENC  =       618.18968116
  PAW double counting   =     13410.84844566   -13290.59940388
  entropy T*S    EENTRO =         0.00946727
  eigenvalues    EBANDS =     -1446.96040633
  atomic energy  EATOM  =     16253.85707884
  ---------------------------------------------------
  free energy    TOTEN  =      -256.60345966 eV

  energy without entropy =     -256.61292693  energy(sigma->0) =     -256.60661542


--------------------------------------------------------------------------------------------------------




----------------------------------------- Iteration    1(  18)  ---------------------------------------


    POTLOK:  cpu time    0.04: real time    0.04
    SETDIJ:  cpu time    0.01: real time    0.01
     EDDAV:  cpu time    0.71: real time    0.71
       DOS:  cpu time    0.00: real time    0.00
    CHARGE:  cpu time    0.02: real time    0.02
    MIXING:  cpu time    0.00: real time    0.00
    --------------------------------------------
      LOOP:  cpu time    0.78: real time    0.99

 eigenvalue-minimisations  :  1912
 total energy-change (2. order) : 0.3963203E-01  (-0.5857675E-01)
 number of electron     240.9999759 magnetization      -0.3119440
 augmentation part       70.6848297 magnetization       0.7853797

 Broyden mixing:
  rms(total) = 0.67046E+00    rms(broyden)= 0.67022E+00
  rms(prec ) = 0.10054E+01
  weight for this iteration     100.00

 eigenvalues of (default mixing * dielectric matrix)
  average eigenvalue GAMMA=   0.5254
  1.4514  1.4514  0.7121  0.7121  0.4557  0.4557  0.0960  0.0960  0.3734  0.2733
  0.2733  0.2700  0.2094

 Free energy of the ion-electron system (eV)
  ---------------------------------------------------
  alpha Z        PSCENC =       663.59213712
  Ewald energy   TEWEN  =     47450.18208092
  -1/2 Hartree   DENC   =    -63913.16716227
  -exchange  EXHF       =         0.00000000
  -V(xc)+E(xc)   XCENC  =       618.59475691
  PAW double counting   =     13425.20465319   -13305.14721556
  entropy T*S    EENTRO =         0.02936321
  eigenvalues    EBANDS =     -1449.70952001
  atomic energy  EATOM  =     16253.85707884
  ---------------------------------------------------
  free energy    TOTEN  =      -256.56382764 eV

  energy without entropy =     -256.59319085  energy(sigma->0) =     -256.57361538


--------------------------------------------------------------------------------------------------------




----------------------------------------- Iteration    1(  19)  ---------------------------------------


    POTLOK:  cpu time    0.04: real time    0.04
    SETDIJ:  cpu time    0.01: real time    0.01
     EDDAV:  cpu time    0.76: real time    0.76
       DOS:  cpu time    0.00: real time    0.00
    CHARGE:  cpu time    0.02: real time    0.02
    MIXING:  cpu time    0.00: real time    0.00
    --------------------------------------------
      LOOP:  cpu time    0.83: real time    0.91

 eigenvalue-minimisations  :  2024
 total energy-change (2. order) : 0.1086274E+00  (-0.1512710E+00)
 number of electron     240.9999761 magnetization      -0.3368899
 augmentation part       70.6576033 magnetization       0.8450565

 Broyden mixing:
  rms(total) = 0.68361E+00    rms(broyden)= 0.68248E+00
  rms(prec ) = 0.79636E+00
  weight for this iteration     100.00

 eigenvalues of (default mixing * dielectric matrix)
  average eigenvalue GAMMA=   0.5095
  1.4559  1.4559  0.7799  0.7799  0.4751  0.4751  0.3818  0.0960  0.0960  0.2775
  0.2775  0.2519  0.2397  0.0912

 Free energy of the ion-electron system (eV)
  ---------------------------------------------------
  alpha Z        PSCENC =       663.59213712
  Ewald energy   TEWEN  =     47450.18208092
  -1/2 Hartree   DENC   =    -63926.30947710
  -exchange  EXHF       =         0.00000000
  -V(xc)+E(xc)   XCENC  =       618.99230301
  PAW double counting   =     13442.16115659   -13322.62928155
  entropy T*S    EENTRO =         0.08412759
  eigenvalues    EBANDS =     -1436.38532562
  atomic energy  EATOM  =     16253.85707884
  ---------------------------------------------------
  free energy    TOTEN  =      -256.45520020 eV

  energy without entropy =     -256.53932778  energy(sigma->0) =     -256.48324273


--------------------------------------------------------------------------------------------------------




----------------------------------------- Iteration    1(  20)  ---------------------------------------


    POTLOK:  cpu time    0.04: real time    0.04
    SETDIJ:  cpu time    0.01: real time    0.01
     EDDAV:  cpu time    0.68: real time    0.68
       DOS:  cpu time    0.00: real time    0.00
    CHARGE:  cpu time    0.02: real time    0.02
    MIXING:  cpu time    0.00: real time    0.00
    --------------------------------------------
      LOOP:  cpu time    0.75: real time    0.84

 eigenvalue-minimisations  :  1816
 total energy-change (2. order) : 0.9725208E-02  (-0.1549401E-01)
 number of electron     240.9999764 magnetization      -0.4237707
 augmentation part       70.6118011 magnetization       0.7066066

 Broyden mixing:
  rms(total) = 0.56433E+00    rms(broyden)= 0.56426E+00
  rms(prec ) = 0.68964E+00
  weight for this iteration     100.00

 eigenvalues of (default mixing * dielectric matrix)
  average eigenvalue GAMMA=   0.5585
  1.4890  1.4890  0.9955  0.9955  0.5486  0.5486  0.0960  0.0960  0.3889  0.3889
  0.3798  0.2633  0.2633  0.2683  0.1670

 Free energy of the ion-electron system (eV)
  ---------------------------------------------------
  alpha Z        PSCENC =       663.59213712
  Ewald energy   TEWEN  =     47450.18208092
  -1/2 Hartree   DENC   =    -63930.34107909
  -exchange  EXHF       =         0.00000000
  -V(xc)+E(xc)   XCENC  =       618.86629607
  PAW double counting   =     13444.47834435   -13325.38201815
  entropy T*S    EENTRO =         0.06769023
  eigenvalues    EBANDS =     -1431.76600528
  atomic energy  EATOM  =     16253.85707884
  ---------------------------------------------------
  free energy    TOTEN  =      -256.44547499 eV

  energy without entropy =     -256.51316522  energy(sigma->0) =     -256.46803840


--------------------------------------------------------------------------------------------------------




----------------------------------------- Iteration    1(  21)  ---------------------------------------


    POTLOK:  cpu time    0.04: real time    0.04
    SETDIJ:  cpu time    0.01: real time    0.01
     EDDAV:  cpu time    0.76: real time    0.76
       DOS:  cpu time    0.00: real time    0.00
    CHARGE:  cpu time    0.02: real time    0.02
    MIXING:  cpu time    0.00: real time    0.00
    --------------------------------------------
      LOOP:  cpu time    0.83: real time    0.92

 eigenvalue-minimisations  :  2088
 total energy-change (2. order) : 0.3055529E-01  (-0.4359973E-01)
 number of electron     240.9999755 magnetization      -0.4775068
 augmentation part       70.7063983 magnetization       0.5279699

 Broyden mixing:
  rms(total) = 0.51988E+00    rms(broyden)= 0.51931E+00
  rms(prec ) = 0.57115E+00
  weight for this iteration     100.00

 eigenvalues of (default mixing * dielectric matrix)
  average eigenvalue GAMMA=   0.5497
  1.4999  1.4999  1.0725  1.0725  0.5619  0.5619  0.3971  0.3971  0.0960  0.0960
  0.3648  0.2663  0.2663  0.2690  0.2138  0.1604

 Free energy of the ion-electron system (eV)
  ---------------------------------------------------
  alpha Z        PSCENC =       663.59213712
  Ewald energy   TEWEN  =     47450.18208092
  -1/2 Hartree   DENC   =    -63929.12695748
  -exchange  EXHF       =         0.00000000
  -V(xc)+E(xc)   XCENC  =       619.43427108
  PAW double counting   =     13481.02191079   -13362.73875451
  entropy T*S    EENTRO =        -0.00429979
  eigenvalues    EBANDS =     -1432.63238667
  atomic energy  EATOM  =     16253.85707884
  ---------------------------------------------------
  free energy    TOTEN  =      -256.41491970 eV

  energy without entropy =     -256.41061991  energy(sigma->0) =     -256.41348643


--------------------------------------------------------------------------------------------------------




----------------------------------------- Iteration    1(  22)  ---------------------------------------


    POTLOK:  cpu time    0.04: real time    0.04
    SETDIJ:  cpu time    0.01: real time    0.01
     EDDAV:  cpu time    0.69: real time    0.69
       DOS:  cpu time    0.00: real time    0.00
    CHARGE:  cpu time    0.02: real time    0.02
    MIXING:  cpu time    0.00: real time    0.00
    --------------------------------------------
      LOOP:  cpu time    0.76: real time    0.85

 eigenvalue-minimisations  :  1856
 total energy-change (2. order) : 0.6559729E-02  (-0.3137655E-01)
 number of electron     240.9999761 magnetization      -0.5728792
 augmentation part       70.6999723 magnetization       0.5580404

 Broyden mixing:
  rms(total) = 0.37242E+00    rms(broyden)= 0.37198E+00
  rms(prec ) = 0.47118E+00
  weight for this iteration     100.00

 eigenvalues of (default mixing * dielectric matrix)
  average eigenvalue GAMMA=   0.5787
  1.5507  1.5507  1.2153  1.2153  0.6518  0.6518  0.4823  0.4823  0.0960  0.0960
  0.3184  0.3184  0.2504  0.2504  0.2880  0.2577  0.1625

 Free energy of the ion-electron system (eV)
  ---------------------------------------------------
  alpha Z        PSCENC =       663.59213712
  Ewald energy   TEWEN  =     47450.18208092
  -1/2 Hartree   DENC   =    -63937.24055802
  -exchange  EXHF       =         0.00000000
  -V(xc)+E(xc)   XCENC  =       619.62869573
  PAW double counting   =     13499.21369550   -13381.46495677
  entropy T*S    EENTRO =         0.04306904
  eigenvalues    EBANDS =     -1424.21960232
  atomic energy  EATOM  =     16253.85707884
  ---------------------------------------------------
  free energy    TOTEN  =      -256.40835997 eV

  energy without entropy =     -256.45142901  energy(sigma->0) =     -256.42271631


--------------------------------------------------------------------------------------------------------




----------------------------------------- Iteration    1(  23)  ---------------------------------------


    POTLOK:  cpu time    0.04: real time    0.04
    SETDIJ:  cpu time    0.01: real time    0.01
     EDDAV:  cpu time    0.71: real time    0.71
       DOS:  cpu time    0.00: real time    0.00
    CHARGE:  cpu time    0.02: real time    0.02
    MIXING:  cpu time    0.00: real time    0.00
    --------------------------------------------
      LOOP:  cpu time    0.78: real time    0.87

 eigenvalue-minimisations  :  1912
 total energy-change (2. order) :-0.7641292E-02  (-0.2666311E-01)
 number of electron     240.9999756 magnetization      -0.6434911
 augmentation part       70.7522064 magnetization       0.3265036

 Broyden mixing:
  rms(total) = 0.33705E+00    rms(broyden)= 0.33631E+00
  rms(prec ) = 0.35489E+00
  weight for this iteration     100.00

 eigenvalues of (default mixing * dielectric matrix)
  average eigenvalue GAMMA=   0.6110
  1.6685  1.6685  1.3693  1.3693  0.7306  0.7306  0.5135  0.5135  0.0960  0.0960
  0.3626  0.3626  0.3880  0.2615  0.2615  0.2660  0.1813  0.1591

 Free energy of the ion-electron system (eV)
  ---------------------------------------------------
  alpha Z        PSCENC =       663.59213712
  Ewald energy   TEWEN  =     47450.18208092
  -1/2 Hartree   DENC   =    -63936.90597183
  -exchange  EXHF       =         0.00000000
  -V(xc)+E(xc)   XCENC  =       619.97773386
  PAW double counting   =     13525.41692264   -13408.35956839
  entropy T*S    EENTRO =        -0.01549904
  eigenvalues    EBANDS =     -1424.16091538
  atomic energy  EATOM  =     16253.85707884
  ---------------------------------------------------
  free energy    TOTEN  =      -256.41600126 eV

  energy without entropy =     -256.40050222  energy(sigma->0) =     -256.41083491


--------------------------------------------------------------------------------------------------------




----------------------------------------- Iteration    1(  24)  ---------------------------------------


    POTLOK:  cpu time    0.04: real time    0.04
    SETDIJ:  cpu time    0.01: real time    0.01
     EDDAV:  cpu time    0.69: real time    0.69
       DOS:  cpu time    0.00: real time    0.00
    CHARGE:  cpu time    0.02: real time    0.02
    MIXING:  cpu time    0.00: real time    0.00
    --------------------------------------------
      LOOP:  cpu time    0.76: real time    0.85

 eigenvalue-minimisations  :  1856
 total energy-change (2. order) : 0.1611143E-01  (-0.1742276E-01)
 number of electron     240.9999757 magnetization      -0.7509100
 augmentation part       70.7374994 magnetization       0.2230858

 Broyden mixing:
  rms(total) = 0.25286E+00    rms(broyden)= 0.25273E+00
  rms(prec ) = 0.27306E+00
  weight for this iteration     100.00

 eigenvalues of (default mixing * dielectric matrix)
  average eigenvalue GAMMA=   0.6350
  1.8956  1.8956  1.3180  1.3180  0.7991  0.7991  0.5490  0.5490  0.4556  0.4556
  0.0960  0.0960  0.3471  0.3471  0.2614  0.2614  0.2664  0.1945  0.1604

 Free energy of the ion-electron system (eV)
  ---------------------------------------------------
  alpha Z        PSCENC =       663.59213712
  Ewald energy   TEWEN  =     47450.18208092
  -1/2 Hartree   DENC   =    -63936.99246735
  -exchange  EXHF       =         0.00000000
  -V(xc)+E(xc)   XCENC  =       619.85289483
  PAW double counting   =     13533.58800896   -13417.12807139
  entropy T*S    EENTRO =        -0.01494886
  eigenvalues    EBANDS =     -1423.33660291
  atomic energy  EATOM  =     16253.85707884
  ---------------------------------------------------
  free energy    TOTEN  =      -256.39988983 eV

  energy without entropy =     -256.38494097  energy(sigma->0) =     -256.39490687


--------------------------------------------------------------------------------------------------------




----------------------------------------- Iteration    1(  25)  ---------------------------------------


    POTLOK:  cpu time    0.04: real time    0.04
    SETDIJ:  cpu time    0.01: real time    0.01
     EDDAV:  cpu time    0.72: real time    0.72
       DOS:  cpu time    0.00: real time    0.00
    CHARGE:  cpu time    0.02: real time    0.02
    MIXING:  cpu time    0.00: real time    0.00
    --------------------------------------------
      LOOP:  cpu time    0.79: real time    0.88

 eigenvalue-minimisations  :  1952
 total energy-change (2. order) :-0.1804136E+00  (-0.1780017E-01)
 number of electron     240.9999762 magnetization      -0.8007981
 augmentation part       70.6856690 magnetization       0.1034316

 Broyden mixing:
  rms(total) = 0.17486E+00    rms(broyden)= 0.17439E+00
  rms(prec ) = 0.18203E+00
  weight for this iteration     100.00

 eigenvalues of (default mixing * dielectric matrix)
  average eigenvalue GAMMA=   0.6533
  1.9663  1.9663  1.3851  1.3851  0.8412  0.8412  0.6097  0.6097  0.5098  0.5098
  0.0960  0.0960  0.4077  0.3520  0.3520  0.2612  0.2612  0.2652  0.1899  0.1602

 Free energy of the ion-electron system (eV)
  ---------------------------------------------------
  alpha Z        PSCENC =       663.59213712
  Ewald energy   TEWEN  =     47450.18208092
  -1/2 Hartree   DENC   =    -63943.01515960
  -exchange  EXHF       =         0.00000000
  -V(xc)+E(xc)   XCENC  =       619.55985415
  PAW double counting   =     13546.04659925   -13430.42712569
  entropy T*S    EENTRO =        -0.01722328
  eigenvalues    EBANDS =     -1416.35854519
  atomic energy  EATOM  =     16253.85707884
  ---------------------------------------------------
  free energy    TOTEN  =      -256.58030347 eV

  energy without entropy =     -256.56308020  energy(sigma->0) =     -256.57456238


--------------------------------------------------------------------------------------------------------




----------------------------------------- Iteration    1(  26)  ---------------------------------------


    POTLOK:  cpu time    0.04: real time    0.04
    SETDIJ:  cpu time    0.01: real time    0.01
     EDDAV:  cpu time    0.65: real time    0.65
       DOS:  cpu time    0.00: real time    0.00
    CHARGE:  cpu time    0.02: real time    0.02
    MIXING:  cpu time    0.00: real time    0.00
    --------------------------------------------
      LOOP:  cpu time    0.72: real time    0.79

 eigenvalue-minimisations  :  1720
 total energy-change (2. order) :-0.1068160E+00  (-0.6240195E-02)
 number of electron     240.9999760 magnetization      -0.8007280
 augmentation part       70.7070241 magnetization      -0.0680978

 Broyden mixing:
  rms(total) = 0.28051E+00    rms(broyden)= 0.28001E+00
  rms(prec ) = 0.29620E+00
  weight for this iteration     100.00

 eigenvalues of (default mixing * dielectric matrix)
  average eigenvalue GAMMA=   0.6373
  1.9743  1.9743  1.3661  1.3661  0.8418  0.8418  0.3330  0.5841  0.5841  0.5259
  0.5259  0.4348  0.0960  0.0960  0.3495  0.3495  0.2613  0.2613  0.2657  0.1909
  0.1603

 Free energy of the ion-electron system (eV)
  ---------------------------------------------------
  alpha Z        PSCENC =       663.59213712
  Ewald energy   TEWEN  =     47450.18208092
  -1/2 Hartree   DENC   =    -63944.45017755
  -exchange  EXHF       =         0.00000000
  -V(xc)+E(xc)   XCENC  =       619.52972089
  PAW double counting   =     13551.77995024   -13436.31498971
  entropy T*S    EENTRO =        -0.01500178
  eigenvalues    EBANDS =     -1414.84791843
  atomic energy  EATOM  =     16253.85707884
  ---------------------------------------------------
  free energy    TOTEN  =      -256.68711946 eV

  energy without entropy =     -256.67211767  energy(sigma->0) =     -256.68211886


--------------------------------------------------------------------------------------------------------




----------------------------------------- Iteration    1(  27)  ---------------------------------------


    POTLOK:  cpu time    0.04: real time    0.04
    SETDIJ:  cpu time    0.01: real time    0.01
     EDDAV:  cpu time    0.54: real time    0.54
       DOS:  cpu time    0.00: real time    0.00
    CHARGE:  cpu time    0.02: real time    0.02
    MIXING:  cpu time    0.00: real time    0.00
    --------------------------------------------
      LOOP:  cpu time    0.60: real time    0.69

 eigenvalue-minimisations  :  1328
 total energy-change (2. order) : 0.2290505E-01  (-0.1015507E-02)
 number of electron     240.9999761 magnetization      -0.8157778
 augmentation part       70.7011620 magnetization      -0.0652719

 Broyden mixing:
  rms(total) = 0.26896E+00    rms(broyden)= 0.26895E+00
  rms(prec ) = 0.28408E+00
  weight for this iteration     100.00

 eigenvalues of (default mixing * dielectric matrix)
  average eigenvalue GAMMA=   0.6415
  1.9989  1.9989  1.3520  1.3520  0.6552  0.8499  0.8499  0.6214  0.6214  0.5401
  0.5401  0.0960  0.0960  0.4267  0.3545  0.3545  0.2617  0.2617  0.2650  0.2650
  0.1918  0.1603

 Free energy of the ion-electron system (eV)
  ---------------------------------------------------
  alpha Z        PSCENC =       663.59213712
  Ewald energy   TEWEN  =     47450.18208092
  -1/2 Hartree   DENC   =    -63944.49629871
  -exchange  EXHF       =         0.00000000
  -V(xc)+E(xc)   XCENC  =       619.54161965
  PAW double counting   =     13551.81732589   -13436.36151495
  entropy T*S    EENTRO =        -0.01610210
  eigenvalues    EBANDS =     -1414.78054106
  atomic energy  EATOM  =     16253.85707884
  ---------------------------------------------------
  free energy    TOTEN  =      -256.66421440 eV

  energy without entropy =     -256.64811230  energy(sigma->0) =     -256.65884704


--------------------------------------------------------------------------------------------------------




----------------------------------------- Iteration    1(  28)  ---------------------------------------


    POTLOK:  cpu time    0.04: real time    0.04
    SETDIJ:  cpu time    0.01: real time    0.01
     EDDAV:  cpu time    0.73: real time    0.73
       DOS:  cpu time    0.00: real time    0.00
    CHARGE:  cpu time    0.02: real time    0.02
    MIXING:  cpu time    0.00: real time    0.00
    --------------------------------------------
      LOOP:  cpu time    0.79: real time    0.86

 eigenvalue-minimisations  :  1960
 total energy-change (2. order) : 0.7640345E-02  (-0.9319233E-03)
 number of electron     240.9999761 magnetization      -0.8330650
 augmentation part       70.7116112 magnetization      -0.0379465

 Broyden mixing:
  rms(total) = 0.27014E+00    rms(broyden)= 0.27012E+00
  rms(prec ) = 0.28807E+00
  weight for this iteration     100.00

 eigenvalues of (default mixing * dielectric matrix)
  average eigenvalue GAMMA=   0.6619
  2.0228  2.0228  1.4167  1.4167  1.0307  0.8693  0.8693  0.6581  0.6581  0.5160
  0.5160  0.4054  0.4054  0.0960  0.0960  0.3897  0.3472  0.3472  0.2613  0.2613
  0.2665  0.1912  0.1603

 Free energy of the ion-electron system (eV)
  ---------------------------------------------------
  alpha Z        PSCENC =       663.59213712
  Ewald energy   TEWEN  =     47450.18208092
  -1/2 Hartree   DENC   =    -63944.39908644
  -exchange  EXHF       =         0.00000000
  -V(xc)+E(xc)   XCENC  =       619.50875004
  PAW double counting   =     13553.56294116   -13438.11715757
  entropy T*S    EENTRO =        -0.02390621
  eigenvalues    EBANDS =     -1414.81941192
  atomic energy  EATOM  =     16253.85707884
  ---------------------------------------------------
  free energy    TOTEN  =      -256.65657406 eV

  energy without entropy =     -256.63266784  energy(sigma->0) =     -256.64860532


--------------------------------------------------------------------------------------------------------




----------------------------------------- Iteration    1(  29)  ---------------------------------------


    POTLOK:  cpu time    0.04: real time    0.04
    SETDIJ:  cpu time    0.01: real time    0.01
     EDDAV:  cpu time    0.70: real time    0.70
       DOS:  cpu time    0.00: real time    0.00
    CHARGE:  cpu time    0.02: real time    0.02
    MIXING:  cpu time    0.00: real time    0.00
    --------------------------------------------
      LOOP:  cpu time    0.77: real time    0.93

 eigenvalue-minimisations  :  1864
 total energy-change (2. order) : 0.3164370E-01  (-0.6624850E-03)
 number of electron     240.9999761 magnetization      -0.8831477
 augmentation part       70.7123920 magnetization      -0.0395262

 Broyden mixing:
  rms(total) = 0.26256E+00    rms(broyden)= 0.26254E+00
  rms(prec ) = 0.28447E+00
  weight for this iteration     100.00

 eigenvalues of (default mixing * dielectric matrix)
  average eigenvalue GAMMA=   0.7019
  2.1409  2.1409  1.4376  1.4383  1.4383  0.9472  0.9472  0.6878  0.6878  0.5625
  0.5625  0.5191  0.5191  0.0960  0.0960  0.4095  0.3575  0.3575  0.3595  0.2614
  0.2614  0.2668  0.1913  0.1603

 Free energy of the ion-electron system (eV)
  ---------------------------------------------------
  alpha Z        PSCENC =       663.59213712
  Ewald energy   TEWEN  =     47450.18208092
  -1/2 Hartree   DENC   =    -63944.42757843
  -exchange  EXHF       =         0.00000000
  -V(xc)+E(xc)   XCENC  =       619.50988304
  PAW double counting   =     13553.90328586   -13438.46752554
  entropy T*S    EENTRO =        -0.02821156
  eigenvalues    EBANDS =     -1414.74608061
  atomic energy  EATOM  =     16253.85707884
  ---------------------------------------------------
  free energy    TOTEN  =      -256.62493036 eV

  energy without entropy =     -256.59671880  energy(sigma->0) =     -256.61552650


--------------------------------------------------------------------------------------------------------




----------------------------------------- Iteration    1(  30)  ---------------------------------------


    POTLOK:  cpu time    0.04: real time    0.04
    SETDIJ:  cpu time    0.01: real time    0.01
     EDDAV:  cpu time    0.71: real time    0.71
       DOS:  cpu time    0.00: real time    0.00
    CHARGE:  cpu time    0.02: real time    0.02
    MIXING:  cpu time    0.00: real time    0.00
    --------------------------------------------
      LOOP:  cpu time    0.78: real time    0.98

 eigenvalue-minimisations  :  1904
 total energy-change (2. order) : 0.3599003E-01  (-0.1588962E-02)
 number of electron     240.9999762 magnetization      -0.9185423
 augmentation part       70.6988999 magnetization      -0.0154489

 Broyden mixing:
  rms(total) = 0.22699E+00    rms(broyden)= 0.22689E+00
  rms(prec ) = 0.24540E+00
  weight for this iteration     100.00

 eigenvalues of (default mixing * dielectric matrix)
  average eigenvalue GAMMA=   0.6971
  2.0284  2.0284  1.5089  1.4724  1.4724  0.9412  0.9412  0.7457  0.7457  0.5899
  0.5899  0.5666  0.5666  0.0960  0.0960  0.4214  0.4214  0.3489  0.3489  0.3575
  0.2614  0.2614  0.2667  0.1913  0.1603

 Free energy of the ion-electron system (eV)
  ---------------------------------------------------
  alpha Z        PSCENC =       663.59213712
  Ewald energy   TEWEN  =     47450.18208092
  -1/2 Hartree   DENC   =    -63946.48699458
  -exchange  EXHF       =         0.00000000
  -V(xc)+E(xc)   XCENC  =       619.48264356
  PAW double counting   =     13554.88320661   -13439.52963087
  entropy T*S    EENTRO =        -0.03316510
  eigenvalues    EBANDS =     -1412.53629683
  atomic energy  EATOM  =     16253.85707884
  ---------------------------------------------------
  free energy    TOTEN  =      -256.58894032 eV

  energy without entropy =     -256.55577522  energy(sigma->0) =     -256.57788529


--------------------------------------------------------------------------------------------------------




----------------------------------------- Iteration    1(  31)  ---------------------------------------


    POTLOK:  cpu time    0.04: real time    0.04
    SETDIJ:  cpu time    0.01: real time    0.01
     EDDAV:  cpu time    0.67: real time    0.67
       DOS:  cpu time    0.00: real time    0.00
    CHARGE:  cpu time    0.02: real time    0.02
    MIXING:  cpu time    0.00: real time    0.00
    --------------------------------------------
      LOOP:  cpu time    0.74: real time    0.95

 eigenvalue-minimisations  :  1776
 total energy-change (2. order) :-0.1934612E-01  (-0.1363412E-02)
 number of electron     240.9999763 magnetization      -0.9879666
 augmentation part       70.6900016 magnetization      -0.0212064

 Broyden mixing:
  rms(total) = 0.16992E+00    rms(broyden)= 0.16975E+00
  rms(prec ) = 0.18208E+00
  weight for this iteration     100.00

[...]
     39      -5.4357      1.00000
     40      -5.4022      1.00000
     41      -5.2923      1.00000
     42      -5.2359      1.00000
     43      -5.1294      1.00000
     44      -4.9946      1.00000
     45      -4.9668      1.00000
     46      -4.8312      1.00000
     47      -4.7456      1.00000
     48      -4.7377      1.00000
     49      -4.6353      1.00000
     50      -4.5910      1.00000
     51      -4.5664      1.00000
     52      -4.5195      1.00000
     53      -4.4695      1.00000
     54      -4.4463      1.00000
     55      -4.4283      1.00000
     56      -4.3563      1.00000
     57      -4.3221      1.00000
     58      -4.2808      1.00000
     59      -4.2736      1.00000
     60      -4.1922      1.00000
     61      -4.1882      1.00000
     62      -4.1587      1.00000
     63      -4.0856      1.00000
     64      -4.0135      1.00000
     65      -4.0037      1.00000
     66      -3.9413      1.00000
     67      -3.8509      1.00000
     68      -3.8059      1.00000
     69      -3.7551      1.00000
     70      -3.6635      1.00000
     71      -3.5098      1.00000
     72      -3.4949      1.00000
     73      -3.4520      1.00000
     74      -3.3550      1.00000
     75      -3.2905      1.00000
     76      -3.1559      1.00000
     77      -3.0982      1.00000
     78      -3.0829      1.00000
     79      -3.0609      1.00000
     80      -3.0537      1.00000
     81      -3.0256      1.00000
     82      -2.9959      1.00000
     83      -2.9423      1.00000
     84      -2.8924      1.00000
     85      -2.8248      1.00000
     86      -2.7900      1.00000
     87      -2.7724      1.00000
     88      -2.7067      1.00000
     89      -2.5300      1.00000
     90      -2.4465      1.00000
     91      -2.4033      1.00000
     92      -2.3627      1.00000
     93      -2.2798      1.00000
     94      -2.1218      1.00000
     95      -2.0660      1.00000
     96      -2.0391      1.00000
     97      -2.0248      1.00000
     98      -1.5418      1.00000
     99      -1.4434      1.00000
    100      -1.4006      1.00000
    101      -1.2660      1.00000
    102      -1.2397      1.00000
    103      -1.0552      1.00000
    104      -1.0356      1.00000
    105      -1.0186      1.00000
    106      -0.9919      1.00000
    107      -0.8130      1.00000
    108      -0.7616      1.00000
    109      -0.7194      1.00000
    110      -0.7129      1.00000
    111      -0.6195      1.00000
    112      -0.4897      1.00000
    113      -0.4085      1.00000
    114      -0.3586      1.00000
    115      -0.3430      1.00000
    116      -0.2868      1.00000
    117      -0.2140      1.00000
    118       0.0322      1.00065
    119       0.1047      1.00312
    120       0.1160      1.00386
    121       0.2611      1.02845
    122       0.5706      0.44461
    123       0.6175      0.25827
    124       1.3984     -0.00000
    125       1.8647     -0.00000
    126       2.0942     -0.00000
    127       2.2069     -0.00000
    128       2.2383     -0.00000
    129       2.2895     -0.00000
    130       2.3161     -0.00000
    131       2.3293     -0.00000
    132       2.8401     -0.00000
    133       2.9556     -0.00000
    134       3.1185     -0.00000
    135       3.1351     -0.00000
    136       3.1770     -0.00000
    137       3.3243     -0.00000
    138       3.4259     -0.00000
    139       3.4439     -0.00000
    140       3.4814     -0.00000
    141       3.6308     -0.00000
    142       3.6429     -0.00000
    143       3.6432     -0.00000
    144       3.7103     -0.00000


--------------------------------------------------------------------------------------------------------


 soft charge-density along one line, spin component           1
         0         1         2         3         4         5         6         7         8         9
 total charge-density along one line
 
 soft charge-density along one line, spin component           2
         0         1         2         3         4         5         6         7         8         9
 total charge-density along one line
 
 pseudopotential strength for first ion, spin component:           1
 24.203   0.016   0.012  -0.060   0.002   0.002  -0.011   0.000
  0.016   0.024   0.000  -0.001   0.000   0.000  -0.000   0.000
  0.012   0.000  -5.947  -0.001  -0.000   0.044  -0.000  -0.000
 -0.060  -0.001  -0.001  -6.054  -0.000  -0.000   0.031  -0.000
  0.002   0.000  -0.000  -0.000  -5.993  -0.000  -0.000   0.040
  0.002   0.000   0.044  -0.000  -0.000   0.206  -0.000   0.000
 -0.011  -0.000  -0.000   0.031  -0.000  -0.000   0.204  -0.000
  0.000   0.000  -0.000  -0.000   0.040   0.000  -0.000   0.206
 pseudopotential strength for first ion, spin component:           2
 24.239   0.016   0.012  -0.065   0.002   0.002  -0.012   0.000
  0.016   0.024   0.000  -0.001   0.000   0.000  -0.000   0.000
  0.012   0.000  -5.833   0.003   0.000   0.062   0.000   0.000
 -0.065  -0.001   0.003  -6.273  -0.000   0.000  -0.004  -0.000
  0.002   0.000   0.000  -0.000  -6.127   0.000  -0.000   0.017
  0.002   0.000   0.062   0.000   0.000   0.209   0.000   0.000
 -0.012  -0.000   0.000  -0.004  -0.000   0.000   0.199  -0.000
  0.000   0.000   0.000  -0.000   0.017   0.000  -0.000   0.202
 total augmentation occupancy for first ion, spin component:           1
  1.850   0.486   0.004  -0.015   0.001   0.005  -0.038   0.001
  0.486   0.530  -0.021   0.125  -0.004   0.024  -0.104   0.002
  0.004  -0.021   1.821  -0.007   0.000  -0.549   0.019  -0.000
 -0.015   0.125  -0.007   1.604  -0.001   0.019  -1.002  -0.001
  0.001  -0.004   0.000  -0.001   1.710  -0.000  -0.001  -0.865
  0.005   0.024  -0.549   0.019  -0.000   0.315  -0.003  -0.000
 -0.038  -0.104   0.019  -1.002  -0.001  -0.003   0.743   0.001
  0.001   0.002  -0.000  -0.001  -0.865  -0.000   0.001   0.571
 total augmentation occupancy for first ion, spin component:           2
  0.016  -0.056   0.001  -0.006  -0.000  -0.002  -0.001  -0.000
 -0.056   0.185   0.000   0.025   0.000   0.006  -0.010   0.001
  0.001   0.000   0.130   0.003   0.000   0.058   0.003  -0.000
 -0.006   0.025   0.003  -0.181  -0.000   0.002  -0.021   0.000
 -0.000   0.000   0.000  -0.000  -0.100   0.000   0.000  -0.020
 -0.002   0.006   0.058   0.002   0.000  -0.001  -0.002   0.000
 -0.001  -0.010   0.003  -0.021   0.000  -0.002   0.117   0.000
 -0.000   0.001  -0.000   0.000  -0.020   0.000   0.000   0.072


------------------------ aborting loop because EDIFF is reached ----------------------------------------


    CHARGE:  cpu time    0.02: real time    0.02
    FORLOC:  cpu time    0.00: real time    0.00
    FORNL :  cpu time    0.22: real time    0.22
    STRESS:  cpu time    0.22: real time    0.22
    FORCOR:  cpu time    0.03: real time    0.03
    FORHAR:  cpu time    0.00: real time    0.00
    MIXING:  cpu time    0.00: real time    0.00

  FORCE on cell =-STRESS in cart. coord.  units (eV):
  Direction    XX          YY          ZZ          XY          YZ          ZX
  --------------------------------------------------------------------------------------
  Alpha Z   663.59214   663.59214   663.59214
  Ewald   55748.43722 54345.40477-64262.67515    -8.94557    19.27685    22.01427
  Hartree 60123.19071 59373.54978-57230.79044    -3.37850    14.87078    10.12943
  E(xc)   -1183.27421 -1181.39956 -1182.18803    -0.04388     0.20036     0.06361
  Local  ************************116823.70380    11.02496   -22.33386   -30.88253
  n-local   306.12936   297.81049   288.33800     0.24790    -1.63380    -0.03787
  augment  1471.13150  1483.53010  1491.99523     0.22367    -4.53602    -0.26250
  Kinetic  3341.38399  3398.31213  3417.01374     0.91367    -4.77641    -1.30140
  Fock        0.00000     0.00000     0.00000     0.00000     0.00000     0.00000
  -------------------------------------------------------------------------------------
  Total      21.96722    22.43556     8.98929     0.04224     1.06791    -0.27700
  in kB      68.23259    69.68730    27.92172     0.13121     3.31703    -0.86039
  external pressure =       55.28 kB  Pullay stress =        0.00 kB


 VOLUME and BASIS-vectors are now :
 -----------------------------------------------------------------------------
  energy-cutoff  :      367.69
  volume of cell :      515.81
      direct lattice vectors                 reciprocal lattice vectors
     2.869999890  0.000000000  0.000000000     0.348432069  0.000000000  0.000000000
     0.000000000  6.250820160  0.000000000     0.000000000  0.159979007  0.000000000
     0.000000000  0.000000000 28.752460480     0.000000000  0.000000000  0.034779632

  length of vectors
     2.869999890  6.250820160 28.752460480     0.348432069  0.159979007  0.034779632


 FORCES acting on ions
    electron-ion (+dipol)            ewald-force                    non-local-force                 convergence-correction
 -----------------------------------------------------------------------------------------------
   -.485E+00 -.846E+01 0.726E+03   0.758E+00 0.102E+02 -.734E+03   -.271E+00 -.176E+01 0.884E+01   0.629E-03 0.477E-02 -.965E-01
   0.201E-03 0.319E-01 -.695E+03   0.417E-05 -.451E-01 0.687E+03   0.434E-04 0.111E-01 0.764E+01   -.741E-05 0.315E-03 -.348E-01
   0.146E-04 -.702E-01 -.198E+04   -.577E-05 0.727E-01 0.201E+04   -.147E-04 -.344E-02 -.268E+02   -.434E-05 0.344E-04 0.918E-01
   -.123E+01 -.168E+00 0.158E+04   0.119E+01 -.357E+01 -.157E+04   0.440E-01 0.373E+01 -.814E+01   0.367E-02 0.155E-01 -.775E-01
   -.290E+01 0.561E+02 0.167E+04   0.320E+01 -.524E+02 -.169E+04   -.290E+00 -.368E+01 0.126E+02   0.430E-02 0.292E-01 -.551E-01
   0.193E+00 0.360E+02 0.411E+03   -.188E+00 -.438E+02 -.411E+03   -.178E-01 0.748E+01 0.341E+00   -.248E-04 -.646E-02 -.995E-01
   0.111E+00 -.391E+02 0.417E+03   -.110E+00 0.467E+02 -.417E+03   -.961E-02 -.744E+01 -.307E+00   -.125E-04 0.709E-02 -.972E-01
   -.632E-04 0.369E+02 -.101E+04   -.590E-06 -.438E+02 0.101E+04   0.654E-04 0.651E+01 0.391E+00   0.295E-05 -.706E-02 -.134E-01
   -.590E-04 -.369E+02 -.101E+04   -.379E-06 0.438E+02 0.101E+04   0.256E-04 -.656E+01 0.354E+00   0.128E-04 0.703E-02 -.132E-01
   -.686E+00 0.252E+02 0.135E+04   0.138E+01 -.331E+02 -.133E+04   -.704E+00 0.792E+01 -.168E+02   -.864E-02 -.105E-01 -.100E+00
   -.105E-01 0.281E+01 0.103E+03   0.292E-01 -.239E+01 -.976E+02   -.212E-01 -.421E+00 -.456E+01   0.250E-04 -.203E-02 -.980E-01
   0.227E-03 -.650E-02 -.132E+04   0.323E-06 -.230E-02 0.133E+04   -.319E-03 0.693E-02 -.869E+01   -.287E-05 -.105E-03 0.154E-01
   0.216E-01 -.176E+02 0.135E+04   -.142E-01 0.204E+02 -.137E+04   -.575E-02 -.279E+01 0.146E+02   -.120E-03 0.667E-02 -.956E-01
   -.708E-02 -.319E+00 0.197E+02   0.352E-02 0.103E+01 -.265E+02   0.568E-02 -.654E+00 0.674E+01   0.247E-05 0.145E-02 -.918E-01
   0.432E-04 0.496E-01 -.141E+04   -.220E-05 -.119E-02 0.140E+04   -.572E-04 -.455E-01 0.451E+01   -.422E-05 0.280E-04 0.101E-01
   -.714E-02 0.202E+02 0.101E+04   -.133E+00 -.243E+02 -.995E+03   0.144E+00 0.400E+01 -.131E+02   0.217E-02 0.916E-02 -.112E+00
   0.303E-01 -.273E+02 0.113E+04   -.141E+00 0.355E+02 -.115E+04   0.115E+00 -.822E+01 0.147E+02   0.204E-02 -.307E-02 -.972E-01
   0.225E-03 0.376E+02 -.296E+03   -.280E-03 -.441E+02 0.296E+03   -.681E-04 0.592E+01 -.524E-01   0.190E-04 0.725E-02 -.679E-01
   0.850E-03 -.373E+02 -.296E+03   -.328E-03 0.439E+02 0.296E+03   -.756E-03 -.596E+01 -.927E-01   0.159E-05 -.721E-02 -.670E-01
   -.616E-04 0.441E+02 -.172E+04   0.613E-06 -.511E+02 0.172E+04   0.631E-04 0.658E+01 -.169E+00   0.653E-05 0.227E-01 0.419E-01
   -.325E-04 -.441E+02 -.172E+04   -.113E-05 0.511E+02 0.172E+04   0.314E-04 -.658E+01 -.182E+00   -.353E-05 -.226E-01 0.419E-01
   0.426E+00 0.136E+02 0.770E+03   -.647E+00 -.241E+02 -.763E+03   0.222E+00 0.106E+02 -.679E+01   -.460E-03 -.794E-02 -.115E+00
   -.151E-02 -.357E+00 -.612E+03   0.180E-04 0.897E-01 0.619E+03   0.193E-02 0.256E+00 -.673E+01   -.174E-04 -.484E-03 -.423E-01
   0.934E-05 0.299E-01 -.206E+04   0.177E-06 -.364E-01 0.209E+04   0.246E-04 0.703E-02 -.333E+02   -.898E-05 -.268E-04 0.891E-01
   0.628E+01 -.218E+03 0.160E+04   -.774E+01 0.270E+03 -.160E+04   0.145E+01 -.512E+02 -.937E+01   0.275E-02 -.732E-01 -.144E-01
   0.298E+01 0.127E+03 0.164E+04   -.571E+01 -.131E+03 -.170E+04   0.273E+01 0.421E+01 0.648E+02   -.489E-02 0.698E-01 0.111E+00
   -.101E+00 -.812E+01 0.126E+04   0.107E+00 0.823E+01 -.126E+04   0.240E-02 -.169E+00 -.113E+01   -.285E-02 0.320E-01 -.145E+00
   -.116E-02 0.405E+00 -.345E+03   0.428E-03 -.362E+00 0.345E+03   -.443E-03 -.344E-01 -.386E-01   -.925E-05 0.236E-03 -.791E-01
   0.507E-04 -.597E-02 -.200E+04   -.228E-06 0.118E-01 0.200E+04   0.130E-04 -.391E-02 0.916E+00   0.161E-05 0.596E-04 0.506E-01
   -.377E+01 -.178E+02 0.183E+04   0.358E+01 0.182E+02 -.183E+04   0.209E+00 -.382E+00 -.238E+01   -.823E-02 -.334E-01 -.110E+00
   0.555E+00 0.857E+01 0.488E+03   -.547E+00 -.835E+01 -.488E+03   -.297E-01 0.688E-02 -.304E+00   -.191E-03 -.164E-02 -.108E+00
   -.837E-04 0.100E-01 -.118E+04   -.181E-05 -.149E-01 0.118E+04   0.693E-04 0.186E-01 -.157E-01   0.826E-05 -.718E-04 -.131E-01
   0.260E+00 0.723E+01 0.189E+04   -.271E+00 -.843E+01 -.188E+04   0.230E-01 0.112E+01 -.224E+01   -.259E-02 0.486E-01 -.103E+00
   -.355E+00 -.102E+02 0.490E+03   0.337E+00 0.100E+02 -.490E+03   0.294E-02 0.142E+00 -.463E+00   -.490E-04 0.181E-02 -.117E+00
   0.130E-03 -.436E-03 -.118E+04   0.840E-06 0.149E-01 0.118E+04   0.950E-04 0.444E-02 0.855E-01   -.161E-04 0.148E-03 -.168E-01
   -.693E+00 0.103E+02 0.123E+04   0.675E+00 -.102E+02 -.123E+04   0.273E-01 -.495E-01 0.171E+00   -.310E-02 -.174E-01 -.103E+00
   -.383E-03 -.392E+00 -.345E+03   -.283E-03 0.354E+00 0.346E+03   -.307E-03 -.188E-02 0.807E-02   -.205E-05 -.144E-03 -.772E-01
   0.364E-05 0.633E-02 -.202E+04   -.142E-06 -.119E-01 0.202E+04   -.516E-07 -.510E-03 0.244E+00   0.210E-04 -.791E-04 0.353E-01
   -.377E+01 0.733E+02 0.252E+03   0.423E+01 -.780E+02 -.248E+03   -.470E+00 0.472E+01 -.397E+01   -.643E-03 0.154E-01 -.566E-03
 -----------------------------------------------------------------------------------------------
   -.315E+01 0.326E+02 0.105E+02   0.488E-13 0.128E-12 -.142E-11   0.316E+01 -.327E+02 -.871E+01   -.162E-01 0.859E-01 -.177E+01
 
 
 POSITION                                       TOTAL-FORCE (eV/Angst)
 -----------------------------------------------------------------------------------
     -0.00358      3.19314      9.97746         0.003312     -0.004998      0.004480
      0.00000      3.12541     16.28136         0.000335     -0.001904      0.066141
      0.00000      3.12541     22.53218         0.000083     -0.001008     -0.648015
      1.41898      5.00608      4.77267         0.013361      0.013654      0.015347
      1.41792      1.21391      4.08086         0.017699     -0.001760      0.002204
      1.43500      5.03054     11.25082        -0.012743     -0.236461      0.218937
      1.43500      1.22029     11.25082        -0.008382      0.200310     -0.268981
      1.43500      5.03054     17.50164         0.000098     -0.405709     -0.013289
      1.43500      1.22029     17.50164         0.000072      0.386621     -0.006787
     -0.03109      2.85754      5.82508        -0.018319     -0.012434      0.004305
      0.00000      3.12541     12.47110        -0.002482     -0.001217      0.394859
      0.00000      3.12541     18.72193        -0.000002     -0.002091     -0.105442
     -0.01385      0.15326      6.77761         0.001594      0.024427     -0.004602
      0.00000      0.00000     13.15594         0.002210      0.060030     -0.141450
      0.00000      0.00000     19.40677         0.000073      0.002743     -0.458565
      1.41777      1.90340      8.20389         0.006986     -0.007664      0.001988
      1.41708      4.35328      7.71509         0.006654     -0.014855      0.018501
      1.43500      1.90513     14.37623        -0.000011     -0.577742     -0.006249
      1.43500      4.34570     14.37623        -0.000139      0.550444      0.011072
      1.43500      1.90513     20.62705         0.000102     -0.345239      0.133404
      1.43500      4.34570     20.62705         0.000088      0.345726      0.134133
     -0.01112     -0.14886      9.28591        -0.000569      0.002755     -0.016854
      0.00000      0.00000     15.59652         0.000516     -0.011764      0.151212
      0.00000      0.00000     21.84734         0.000118      0.000429     -0.263029
      1.23558      3.50856      2.68123         0.000236      0.026915      0.111373
      1.24169      2.40420      1.81289        -0.008403     -0.100455     -0.016199
     -0.01848      3.13697      7.97938         0.006486     -0.024374      0.040813
      0.00000      3.12541     14.37623        -0.001088      0.008194     -0.239383
      0.00000      3.12541     20.62705         0.000158      0.001890      1.280747
      1.41210      3.10724      4.67048         0.019332      0.007743      0.006232
      1.43500      3.12541     11.25082        -0.021901      0.221256     -0.908062
      1.43500      3.12541     17.50164         0.000085      0.013522     -0.031093
     -0.01719      0.01080      4.69222         0.009444     -0.026854      0.044986
      0.00000      0.00000     11.25082        -0.014527     -0.035550     -0.875710
      0.00000      0.00000     17.50164         0.000303      0.018960      0.161754
      1.42112      0.02876      8.02965         0.006818      0.002592     -0.023735
      1.43500      0.00000     14.37623        -0.000882     -0.040479      0.027698
      1.43500      0.00000     20.62705         0.000118     -0.006232      1.166870
      1.31801      1.63048      2.50312        -0.006837     -0.029420      0.030389
 -----------------------------------------------------------------------------------
    total drift:                               -0.003640      0.004480     -0.011390


--------------------------------------------------------------------------------------------------------



  FREE ENERGIE OF THE ION-ELECTRON SYSTEM (eV)
  ---------------------------------------------------
  free  energy   TOTEN  =      -260.88088324 eV

  energy  without entropy=     -260.87947581  energy(sigma->0) =     -260.88041409
 
 d Force = 0.1068384E-02[ 0.356E-04, 0.210E-02]  d Energy = 0.1121909E-02-0.535E-04
 d Force = 0.7929616E+01[ 0.792E+01, 0.794E+01]  d Ewald  = 0.7929602E+01 0.142E-04


--------------------------------------------------------------------------------------------------------


    POTLOK:  cpu time    0.04: real time    0.04


--------------------------------------------------------------------------------------------------------




--------------------------------------------------------------------------------------------------------


  
 reached required accuracy - stopping structural energy minimisation
     LOOP+:  cpu time    4.90: real time    5.81
    4ORBIT:  cpu time    0.00: real time    0.00

 total amount of memory used by VASP on root node    35863. kBytes
========================================================================

   base      :      30000. kBytes
   nonl-proj :       1523. kBytes
   fftplans  :        772. kBytes
   grid      :       2160. kBytes
   one-center:        155. kBytes
   wavefun   :       1253. kBytes
 
  
  
 General timing and accounting informations for this job:
 ========================================================
  
                  Total CPU time used (sec):      667.237
                            User time (sec):      664.589
                          System time (sec):        2.648
                         Elapsed time (sec):      804.565
  
                   Maximum memory used (kb):       93812.
                   Average memory used (kb):           0.
  
                          Minor page faults:        27659
                          Major page faults:            0
                 Voluntary context switches:        42963
