 vasp.5.3.3 18Dez12 (build May 12 2016 12:04:25) complex                        
  
 executed on             LinuxIFC date 2019.05.18  23:04:03
 running on   48 total cores
 distrk:  each k-point on   48 cores,    1 groups
 distr:  one band on NCORES_PER_BAND=   6 cores,    8 groups


--------------------------------------------------------------------------------------------------------


 INCAR:
 POTCAR:    PAW_PBE O 08Apr2002                   
 POTCAR:    PAW_PBE Mn 06Sep2000                  
 POTCAR:    PAW_PBE O 08Apr2002                   
  local pseudopotential read in
  partial core-charges read in
  partial kinetic energy density read in
  kinetic energy density of atom read in
  atomic valenz-charges read in
  non local Contribution for L=           0  read in
    real space projection operators read in
  non local Contribution for L=           0  read in
    real space projection operators read in
  non local Contribution for L=           1  read in
    real space projection operators read in
  non local Contribution for L=           1  read in
    real space projection operators read in
    PAW grid and wavefunctions read in
 
   number of l-projection  operators is LMAX  =           4
   number of lm-projection operators is LMMAX =           8
 
 POTCAR:    PAW_PBE Mn 06Sep2000                  
  local pseudopotential read in
  partial core-charges read in
  partial kinetic energy density read in
  atomic valenz-charges read in
  non local Contribution for L=           2  read in
    real space projection operators read in
  non local Contribution for L=           2  read in
    real space projection operators read in
  non local Contribution for L=           0  read in
    real space projection operators read in
  non local Contribution for L=           0  read in
    real space projection operators read in
  non local Contribution for L=           1  read in
    real space projection operators read in
  non local Contribution for L=           1  read in
    real space projection operators read in
    PAW grid and wavefunctions read in
 
   number of l-projection  operators is LMAX  =           6
   number of lm-projection operators is LMMAX =          18
 

 ----------------------------------------------------------------------------- 
|                                                                             |
|  ADVICE TO THIS USER RUNNING 'VASP/VAMP'   (HEAR YOUR MASTER'S VOICE ...):  |
|                                                                             |
|      You have a (more or less) 'large supercell' and for larger cells       |
|      it might be more efficient to use real space projection opertators     |
|      So try LREAL= Auto  in the INCAR   file.                               |
|      Mind: At the moment your POTCAR file does not contain real space       |
|       projectors, and has to be modified,  BUT if you                       |
|      want to do an extremely  accurate calculation you might also keep the  |
|      reciprocal projection scheme          (i.e. LREAL=.FALSE.)             |
|                                                                             |
 ----------------------------------------------------------------------------- 


 ----------------------------------------------------------------------------- 
|                                                                             |
|  ADVICE TO THIS USER RUNNING 'VASP/VAMP'   (HEAR YOUR MASTER'S VOICE ...):  |
|                                                                             |
|      You enforced a specific xc-type in the INCAR file,                     |
|      a different type was found on the POTCAR file                          |
|          I HOPE YOU KNOW, WHAT YOU ARE  DOING                               |
|                                                                             |
 ----------------------------------------------------------------------------- 

  PAW_PBE O 08Apr2002                   :
 energy of atom  1       EATOM= -432.3788
 kinetic energy error for atom=    0.0208 (will be added to EATOM!!)
  PAW_PBE Mn 06Sep2000                  :
 energy of atom  2       EATOM= -416.7541
 kinetic energy error for atom=    0.0024 (will be added to EATOM!!)
 
 
 POSCAR: (Mn O2)16  (P1) ~ POSCAR_3 1 0 0  surfac
  positions in direct lattice
  velocities in cartesian coordinates
 exchange correlation table for  LEXCH =       14
   RHO(1)=    0.500       N(1)  =     2000
   RHO(2)=  100.500       N(2)  =     4000
 


--------------------------------------------------------------------------------------------------------


 ion  position               nearest neighbor table
   1  0.342  0.500  0.157-  44 1.79
   2  0.156  0.000  0.432-  40 1.90  40 1.90  34 1.91
   3  0.156  0.000  0.762-  41 1.89  41 1.89  35 1.90
   4  0.658  0.500  0.267-  36 1.87  38 1.94  38 1.94
   5  0.656  0.500  0.597-  39 1.89  39 1.89  37 1.90
   6  0.844  0.000  0.236-  36 1.89  36 1.89  38 1.92
   7  0.844  0.000  0.568-  37 1.89  37 1.89  39 1.90
   8  0.345  0.500  0.401-  34 1.89  34 1.89  40 1.91
   9  0.344  0.500  0.733-  35 1.89  35 1.89  41 1.90
  10  0.798  0.000  0.448-  48 1.89  48 1.89  42 1.91
  11  0.796  0.000  0.779-  49 1.89  49 1.89  43 1.90
  12  0.295  0.500  0.283-  46 1.88  46 1.88  44 1.95
  13  0.296  0.500  0.614-  47 1.89  47 1.89  45 1.90
  14  0.204  0.000  0.221-  44 1.90  44 1.90  46 1.90
  15  0.204  0.000  0.551-  45 1.89  45 1.89  47 1.90
  16  0.705  0.500  0.386-  42 1.89  42 1.89  48 1.90
  17  0.704  0.500  0.716-  43 1.89  43 1.89  49 1.90
  18  0.163  0.000  0.348-  46 1.88  40 1.88  40 1.88
  19  0.161  0.000  0.678-  47 1.85  41 1.88  41 1.88
  20  0.659  0.500  0.184-  38 1.82  38 1.82
  21  0.661  0.500  0.513-  48 1.86  39 1.88  39 1.88
  22  0.839  0.000  0.321-  42 1.86  36 1.88  36 1.88
  23  0.839  0.000  0.652-  43 1.85  37 1.88  37 1.88
  24  0.335  0.500  0.486-  45 1.88  34 1.89  34 1.89
  25  0.339  0.500  0.817-  35 1.88  35 1.88
  26  0.542  0.000  0.445-  34 1.88  48 1.88  48 1.88
  27  0.541  0.000  0.775-  35 1.88  49 1.88  49 1.88
  28  0.041  0.500  0.281-  36 1.87  46 1.89  46 1.89
  29  0.041  0.500  0.610-  37 1.88  47 1.88  47 1.88
  30  0.460  0.000  0.225-  38 1.86  44 1.89  44 1.89
  31  0.459  0.000  0.555-  39 1.88  45 1.88  45 1.88
  32  0.960  0.500  0.388-  40 1.86  42 1.88  42 1.88
  33  0.959  0.500  0.720-  41 1.88  43 1.88  43 1.88
  34  0.349  0.000  0.444-  26 1.88  24 1.89  24 1.89   8 1.89   8 1.89   2 1.91  40 2.87  40 2.87

  35  0.348  0.000  0.775-  27 1.88  25 1.88  25 1.88   9 1.89   9 1.89   3 1.90  41 2.87  41 2.87

  36  0.848  0.500  0.279-  28 1.87   4 1.87  22 1.88  22 1.88   6 1.89   6 1.89  38 2.90  38 2.90

  37  0.848  0.500  0.610-  29 1.88  23 1.88  23 1.88   7 1.89   7 1.89   5 1.90  39 2.87  39 2.87

  38  0.652  0.000  0.222-  20 1.82  20 1.82  30 1.86   6 1.92   4 1.94   4 1.94  36 2.90  36 2.90

  39  0.652  0.000  0.555-  31 1.88  21 1.88  21 1.88   5 1.89   5 1.89   7 1.90  37 2.87  37 2.87

  40  0.151  0.500  0.390-  32 1.86  18 1.88  18 1.88   2 1.90   2 1.90   8 1.91  34 2.87  34 2.87

  41  0.152  0.500  0.720-  33 1.88  19 1.88  19 1.88   3 1.89   3 1.89   9 1.90  35 2.87  35 2.87

  42  0.834  0.000  0.384-  22 1.86  32 1.88  32 1.88  16 1.89  16 1.89  10 1.91  48 2.88  48 2.88

  43  0.832  0.000  0.715-  23 1.85  33 1.88  33 1.88  17 1.89  17 1.89  11 1.90  49 2.87  49 2.87

  44  0.333  0.500  0.218-   1 1.79  30 1.89  30 1.89  14 1.90  14 1.90  12 1.95  46 2.89  46 2.89

  45  0.332  0.500  0.550-  24 1.88  31 1.88  31 1.88  15 1.89  15 1.89  13 1.90  47 2.87  47 2.87

  46  0.168  0.000  0.284-  18 1.88  12 1.88  12 1.88  28 1.89  28 1.89  14 1.90  44 2.89  44 2.89

  47  0.168  0.000  0.615-  19 1.85  29 1.88  29 1.88  13 1.89  13 1.89  15 1.90  45 2.87  45 2.87

  48  0.669  0.500  0.450-  21 1.86  26 1.88  26 1.88  10 1.89  10 1.89  16 1.90  42 2.88  42 2.88

  49  0.668  0.500  0.780-  27 1.88  27 1.88  11 1.89  11 1.89  17 1.90  43 2.87  43 2.87
 
  LATTYP: Found a simple orthorhombic cell.
 ALAT       =     2.8413000000
 B/A-ratio  =     3.4120261852
 C/A-ratio  =    10.3466019076
  
  Lattice vectors:
  
 A1 = (   0.0000000000,  -2.8413000000,   0.0000000000)
 A2 = (  -9.6945900000,   0.0000000000,   0.0000000000)
 A3 = (   0.0000000000,   0.0000000000, -29.3978000000)


Analysis of symmetry for initial positions (statically):
=====================================================================
 Subroutine PRICEL returns:
 Original cell was already a primitive cell.
 

 Routine SETGRP: Setting up the symmetry group for a 
 simple orthorhombic supercell.


 Subroutine GETGRP returns: Found  2 space group operations
 (whereof  2 operations were pure point group operations)
 out of a pool of  8 trial point group operations.


The static configuration has the point symmetry C_1h.


Analysis of symmetry for dynamics (positions and initial velocities):
=====================================================================
 Subroutine PRICEL returns:
 Original cell was already a primitive cell.
 

 Routine SETGRP: Setting up the symmetry group for a 
 simple orthorhombic supercell.


 Subroutine GETGRP returns: Found  2 space group operations
 (whereof  2 operations were pure point group operations)
 out of a pool of  8 trial point group operations.


The dynamic configuration has the point symmetry C_1h.


Analysis of constrained symmetry for selective dynamics:
=====================================================================
 Subroutine PRICEL returns:
 Original cell was already a primitive cell.
 

 Routine SETGRP: Setting up the symmetry group for a 
 simple orthorhombic supercell.


 Subroutine GETGRP returns: Found  2 space group operations
 (whereof  2 operations were pure point group operations)
 out of a pool of  8 trial point group operations.


The constrained configuration has the point symmetry C_1h.


Analysis of magnetic symmetry:
=====================================================================

 Subroutine MAGSYM returns: Found  2 space group operations
 (whereof  2 operations were pure point group operations)
 out of a pool of  2 trial space group operations
 (whereof  2 operations were pure point group operations)
 and found also     1 'primitive' translations


The magnetic configuration has the point symmetry C_1h.


 irot  :   1
 --------------------------------------------------------------------
 isymop:   1   0   0
           0   1   0
           0   0   1

 gtrans:     0.0000000     0.0000000     0.0000000

 ptrans:     0.0000000     0.0000000     0.0000000
 rotmap:
 (   1->   1)  (   2->   2)  (   3->   3)  (   4->   4)  (   5->   5) 
 (   6->   6)  (   7->   7)  (   8->   8)  (   9->   9)  (  10->  10) 
 (  11->  11)  (  12->  12)  (  13->  13)  (  14->  14)  (  15->  15) 
 (  16->  16)  (  17->  17)  (  18->  18)  (  19->  19)  (  20->  20) 
 (  21->  21)  (  22->  22)  (  23->  23)  (  24->  24)  (  25->  25) 
 (  26->  26)  (  27->  27)  (  28->  28)  (  29->  29)  (  30->  30) 
 (  31->  31)  (  32->  32)  (  33->  33)  (  34->  34)  (  35->  35) 
 (  36->  36)  (  37->  37)  (  38->  38)  (  39->  39)  (  40->  40) 
 (  41->  41)  (  42->  42)  (  43->  43)  (  44->  44)  (  45->  45) 
 (  46->  46)  (  47->  47)  (  48->  48)  (  49->  49) 


 irot  :   2
 --------------------------------------------------------------------
 isymop:   1   0   0
           0  -1   0
           0   0   1

 gtrans:     0.0000000     0.0000000     0.0000000

 ptrans:     0.0000000     0.0000000     0.0000000
 rotmap:
 (   1->   1)  (   2->   2)  (   3->   3)  (   4->   4)  (   5->   5) 
 (   6->   6)  (   7->   7)  (   8->   8)  (   9->   9)  (  10->  10) 
 (  11->  11)  (  12->  12)  (  13->  13)  (  14->  14)  (  15->  15) 
 (  16->  16)  (  17->  17)  (  18->  18)  (  19->  19)  (  20->  20) 
 (  21->  21)  (  22->  22)  (  23->  23)  (  24->  24)  (  25->  25) 
 (  26->  26)  (  27->  27)  (  28->  28)  (  29->  29)  (  30->  30) 
 (  31->  31)  (  32->  32)  (  33->  33)  (  34->  34)  (  35->  35) 
 (  36->  36)  (  37->  37)  (  38->  38)  (  39->  39)  (  40->  40) 
 (  41->  41)  (  42->  42)  (  43->  43)  (  44->  44)  (  45->  45) 
 (  46->  46)  (  47->  47)  (  48->  48)  (  49->  49) 
 
 
 KPOINTS: Automatic mesh                          

Automatic generation of k-mesh.
Space group operators:
 irot       det(A)        alpha          n_x          n_y          n_z        tau_x        tau_y        tau_z
    1     1.000000     0.000000     1.000000     0.000000     0.000000     0.000000     0.000000     0.000000
    2    -1.000000   180.000000     0.000000     1.000000     0.000000     0.000000     0.000000     0.000000
 
 Subroutine IBZKPT returns following result:
 ===========================================
 
 Found     10 irreducible k-points:
 
 Following reciprocal coordinates:
            Coordinates               Weight
  0.000000  0.000000  0.000000      1.000000
  0.333333  0.000000  0.000000      2.000000
  0.000000  0.111111  0.000000      2.000000
  0.333333  0.111111  0.000000      4.000000
  0.000000  0.222222  0.000000      2.000000
  0.333333  0.222222  0.000000      4.000000
  0.000000  0.333333  0.000000      2.000000
  0.333333  0.333333  0.000000      4.000000
  0.000000  0.444444  0.000000      2.000000
  0.333333  0.444444  0.000000      4.000000
 
 Following cartesian coordinates:
            Coordinates               Weight
  0.000000  0.000000  0.000000      1.000000
  0.034383  0.000000  0.000000      2.000000
  0.000000  0.039106  0.000000      2.000000
  0.034383  0.039106  0.000000      4.000000
  0.000000  0.078211  0.000000      2.000000
  0.034383  0.078211  0.000000      4.000000
  0.000000  0.117317  0.000000      2.000000
  0.034383  0.117317  0.000000      4.000000
  0.000000  0.156423  0.000000      2.000000
  0.034383  0.156423  0.000000      4.000000
 
 TETIRR: Found     64 inequivalent tetrahedra from      162


--------------------------------------------------------------------------------------------------------




 Dimension of arrays:
   k-points           NKPTS =     10   k-points in BZ     NKDIM =     10   number of bands    NBANDS=    192
   number of dos      NEDOS =    301   number of ions     NIONS =     49
   non local maximal  LDIM  =      6   non local SUM 2l+1 LMDIM =     18
   total plane-waves  NPLWV = 145152
   max r-space proj   IRMAX =      1   max aug-charges    IRDMAX=   6789
   dimension x,y,z NGX =    54 NGY =   16 NGZ =  168
   dimension x,y,z NGXF=   108 NGYF=   32 NGZF=  336
   support grid    NGXF=   108 NGYF=   32 NGZF=  336
   ions per type =              33  16
 NGX,Y,Z   is equivalent  to a cutoff of   9.26,  9.36,  9.50 a.u.
 NGXF,Y,Z  is equivalent  to a cutoff of  18.52, 18.72, 19.00 a.u.


 I would recommend the setting:
   dimension x,y,z NGX =    54 NGY =   16 NGZ =  164
 SYSTEM =  (Mn O2)16  (P1) ~ POSCAR_3 1 0 0  surfa 
 POSCAR =  (Mn O2)16  (P1) ~ POSCAR_3 1 0 0  surfac

 Startparameter for this run:
   NWRITE =      1    write-flag & timer
   PREC   = normal    normal or accurate (medium, high low for compatibility)
   ISTART =      0    job   : 0-new  1-cont  2-samecut
   ICHARG =      2    charge: 1-file 2-atom 10-const
   ISPIN  =      2    spin polarized calculation?
   LNONCOLLINEAR =      F non collinear calculations
   LSORBIT =      F    spin-orbit coupling
   INIWAV =      1    electr: 0-lowe 1-rand  2-diag
   LASPH  =      F    aspherical Exc in radial PAW
   METAGGA=      F    non-selfconsistent MetaGGA calc.

 Electronic Relaxation 1
   ENCUT  =  520.0 eV  38.22 Ry    6.18 a.u.  18.03  5.28 54.66*2*pi/ulx,y,z
   ENINI  =  520.0     initial cutoff
   ENAUG  =  605.4 eV  augmentation charge cutoff
   NELM   =     60;   NELMIN=  2; NELMDL= -5     # of ELM steps 
   EDIFF  = 0.1E-03   stopping-criterion for ELM
   LREAL  =      F    real-space projection
   NLSPLINE    = F    spline interpolate recip. space projectors
   LCOMPAT=      F    compatible to vasp.4.4
   GGA_COMPAT  = T    GGA compatible to vasp.4.4-vasp.4.6
   LMAXPAW     = -100 max onsite density
   LMAXMIX     =    2 max onsite mixed and CHGCAR
   VOSKOWN=      1    Vosko Wilk Nusair interpolation
   ROPT   =    0.00000   0.00000
 Ionic relaxation
   EDIFFG = 0.1E-02   stopping-criterion for IOM
   NSW    =    100    number of steps for IOM
   NBLOCK =      1;   KBLOCK =    100    inner block; outer block 
   IBRION =      2    ionic relax: 0-MD 1-quasi-New 2-CG
   NFREE  =      1    steps in history (QN), initial steepest desc. (CG)
   ISIF   =      2    stress and relaxation
   IWAVPR =     11    prediction:  0-non 1-charg 2-wave 3-comb
   ISYM   =      2    0-nonsym 1-usesym 2-fastsym
   LCORR  =      T    Harris-Foulkes like correction to forces

   POTIM  = 0.5000    time-step for ionic-motion
   TEIN   =    0.0    initial temperature
   TEBEG  =    0.0;   TEEND  =   0.0 temperature during run
   SMASS  =  -3.00    Nose mass-parameter (am)
   estimated Nose-frequenzy (Omega)   =  0.10E-29 period in steps =****** mass=  -0.215E-26a.u.
   SCALEE = 1.0000    scale energy and forces
   NPACO  =    256;   APACO  = 16.0  distance and # of slots for P.C.
   PSTRESS=    0.0 pullay stress

  Mass of Ions in am
   POMASS =  16.00 54.94
  Ionic Valenz
   ZVAL   =   6.00  7.00
  Atomic Wigner-Seitz radii
   RWIGS  =  -1.00 -1.00
  virtual crystal weights 
   VCA    =   1.00  1.00
   NELECT =     310.0000    total number of electrons
   NUPDOWN=      -1.0000    fix difference up-down

 DOS related values:
   EMIN   =  10.00;   EMAX   =-10.00  energy-range for DOS
   EFERMI =   0.00
   ISMEAR =    -5;   SIGMA  =   0.20  broadening in eV -4-tet -1-fermi 0-gaus

 Electronic relaxation 2 (details)
   IALGO  =     38    algorithm
   LDIAG  =      T    sub-space diagonalisation (order eigenvalues)
   LSUBROT=      T    optimize rotation matrix (better conditioning)
   TURBO    =      0    0=normal 1=particle mesh
   IRESTART =      0    0=no restart 2=restart with 2 vectors
   NREBOOT  =      0    no. of reboots
   NMIN     =      0    reboot dimension
   EREF     =   0.00    reference energy to select bands
   IMIX   =      4    mixing-type and parameters
     AMIX     =   0.40;   BMIX     =  1.00
     AMIX_MAG =   1.60;   BMIX_MAG =  1.00
     AMIN     =   0.10
     WC   =   100.;   INIMIX=   1;  MIXPRE=   1;  MAXMIX= -45

 Intra band minimization:
   WEIMIN = 0.0010     energy-eigenvalue tresh-hold
   EBREAK =  0.13E-06  absolut break condition
   DEPER  =   0.30     relativ break condition  

   TIME   =   0.40     timestep for ELM

  volume/ion in A,a.u.               =      16.53       111.52
  Fermi-wavevector in a.u.,A,eV,Ry     =   1.188707  2.246331 19.225374  1.413025
  Thomas-Fermi vector in A             =   2.324831
 
 Write flags
   LWAVE  =      F    write WAVECAR
   LCHARG =      F    write CHGCAR
   LVTOT  =      F    write LOCPOT, total local potential
   LVHAR  =      F    write LOCPOT, Hartree potential only
   LELF   =      F    write electronic localiz. function (ELF)
   LORBIT =      0    0 simple, 1 ext, 2 COOP (PROOUT)


 Dipole corrections
   LMONO  =      F    monopole corrections only (constant potential shift)
   LDIPOL =      F    correct potential (dipole corrections)
   IDIPOL =      0    1-x, 2-y, 3-z, 4-all directions 
   EPSILON=  1.0000000 bulk dielectric constant

 Exchange correlation treatment:
   GGA     =    PS    GGA type
   LEXCH   =    14    internal setting for exchange type
   VOSKOWN=      1    Vosko Wilk Nusair interpolation
   LHFCALC =     F    Hartree Fock is set to
   LHFONE  =     F    Hartree Fock one center treatment
   AEXX    =    0.0000 exact exchange contribution

 Linear response parameters
   LEPSILON=     F    determine dielectric tensor
   LRPA    =     F    only Hartree local field effects (RPA)
   LNABLA  =     F    use nabla operator in PAW spheres
   LVEL    =     F    velocity operator in full k-point grid
   LINTERFAST=   F  fast interpolation
   KINTER  =     0    interpolate to denser k-point grid
   CSHIFT  =0.1000    complex shift for real part using Kramers Kronig
   OMEGAMAX=  -1.0    maximum frequency
   DEG_THRESHOLD= 0.2000000E-02 threshold for treating states as degnerate
   RTIME   =    0.100 relaxation time in fs

 Orbital magnetization related:
   ORBITALMAG=     F  switch on orbital magnetization
   LCHIMAG   =     F  perturbation theory with respect to B field
   DQ        =  0.001000  dq finite difference perturbation B field



--------------------------------------------------------------------------------------------------------


 conjugate gradient relaxation of ions
   using selective dynamics as specified on POSCAR
 charge density and potential will be updated during run
 spin polarized calculation
 Variant of blocked Davidson
 Davidson routine will perform the subspace rotation
 perform sub-space diagonalisation
    after iterative eigenvector-optimisation
 modified Broyden-mixing scheme, WC =      100.0
 initial mixing is a Kerker type mixing with AMIX =  0.4000 and BMIX =      1.0000
 Hartree-type preconditioning will be used
 using additional bands           37
 reciprocal scheme for non local part
 use partial core corrections
 calculate Harris-corrections to forces 
   (improved forces if not selfconsistent)
 use gradient corrections 
 use of overlap-Matrix (Vanderbilt PP)
 Fermi weights with tetrahedron method with Bloechl corrections


--------------------------------------------------------------------------------------------------------


  energy-cutoff  :      520.00
  volume of cell :      809.77
      direct lattice vectors                 reciprocal lattice vectors
     9.694590000  0.000000000  0.000000000     0.103150314  0.000000000  0.000000000
     0.000000000  2.841300000  0.000000000     0.000000000  0.351951571  0.000000000
     0.000000000  0.000000000 29.397800000     0.000000000  0.000000000  0.034016151

  length of vectors
     9.694590000  2.841300000 29.397800000     0.103150314  0.351951571  0.034016151


 
 k-points in units of 2pi/SCALE and weight: Automatic mesh                          
   0.00000000  0.00000000  0.00000000       0.037
   0.03438344  0.00000000  0.00000000       0.074
   0.00000000  0.03910573  0.00000000       0.074
   0.03438344  0.03910573  0.00000000       0.148
   0.00000000  0.07821146  0.00000000       0.074
   0.03438344  0.07821146  0.00000000       0.148
   0.00000000  0.11731719  0.00000000       0.074
   0.03438344  0.11731719  0.00000000       0.148
   0.00000000  0.15642292  0.00000000       0.074
   0.03438344  0.15642292  0.00000000       0.148
 
 k-points in reciprocal lattice and weights: Automatic mesh                          
   0.00000000  0.00000000  0.00000000       0.037
   0.33333333  0.00000000  0.00000000       0.074
   0.00000000  0.11111111  0.00000000       0.074
   0.33333333  0.11111111  0.00000000       0.148
   0.00000000  0.22222222  0.00000000       0.074
   0.33333333  0.22222222  0.00000000       0.148
   0.00000000  0.33333333  0.00000000       0.074
   0.33333333  0.33333333  0.00000000       0.148
   0.00000000  0.44444444  0.00000000       0.074
   0.33333333  0.44444444  0.00000000       0.148
 
 position of ions in fractional coordinates (direct lattice) 
   0.34228230  0.50000000  0.15706589
   0.15555803  0.00000000  0.43218499
   0.15587110  0.00000000  0.76212686
   0.65845431  0.50000000  0.26693934
   0.65587110  0.50000000  0.59716724
   0.84428987  0.00000000  0.23645722
   0.84412890  0.00000000  0.56779239
   0.34518293  0.50000000  0.40149008
   0.34412890  0.50000000  0.73275201
   0.79804263  0.00000000  0.44796124
   0.79640666  0.00000000  0.77851746
   0.29479390  0.50000000  0.28310186
   0.29640666  0.50000000  0.61355784
   0.20414505  0.00000000  0.22081012
   0.20359334  0.00000000  0.55140178
   0.70519180  0.50000000  0.38607104
   0.70359334  0.50000000  0.71636141
   0.16290049  0.00000000  0.34802456
   0.16131429  0.00000000  0.67807526
   0.65885560  0.50000000  0.18360658
   0.66131429  0.50000000  0.51311563
   0.83859084  0.00000000  0.32075950
   0.83868571  0.00000000  0.65184399
   0.33539463  0.50000000  0.48599947
   0.33868571  0.50000000  0.81680361
   0.54249775  0.00000000  0.44487828
   0.54140968  0.00000000  0.77509190
   0.04052013  0.50000000  0.28080589
   0.04140968  0.50000000  0.61013228
   0.46019085  0.00000000  0.22537125
   0.45859032  0.00000000  0.55482734
   0.95987179  0.50000000  0.38764271
   0.95859032  0.50000000  0.71978697
   0.34889216  0.00000000  0.44405153
   0.34778547  0.00000000  0.77511205
   0.84794189  0.50000000  0.27879245
   0.84778547  0.50000000  0.61015243
   0.65154638  0.00000000  0.22201927
   0.65221453  0.00000000  0.55480720
   0.15122249  0.50000000  0.38950773
   0.15221453  0.50000000  0.71976682
   0.83357581  0.00000000  0.38398087
   0.83243150  0.00000000  0.71487697
   0.33322762  0.50000000  0.21795711
   0.33243150  0.50000000  0.54991735
   0.16819108  0.00000000  0.28426314
   0.16756850  0.00000000  0.61504227
   0.66917471  0.50000000  0.44976390
   0.66756850  0.50000000  0.78000189
 
 position of ions in cartesian coordinates  (Angst):
   3.31828654  1.42065000  4.61739168
   1.50807133  0.00000000 12.70528795
   1.51110641  0.00000000 22.40485300
   6.38344453  1.42065000  7.84742925
   6.35840141  1.42065000 17.55540309
   8.18504409  0.00000000  6.95132216
   8.18348359  0.00000000 16.69184712
   3.34640698  1.42065000 11.80292506
   3.33618859  1.42065000 21.54129704
   7.73669605  0.00000000 13.16907494
   7.72083604  0.00000000 22.88670059
   2.85790599  1.42065000  8.32257195
   2.87354104  1.42065000 18.03725067
   1.97910258  0.00000000  6.49133169
   1.97375396  0.00000000 16.20999925
   6.83654533  1.42065000 11.34963912
   6.82104896  1.42065000 21.05944946
   1.57925342  0.00000000 10.23115628
   1.56387590  0.00000000 19.93392088
   6.38733487  1.42065000  5.39762947
   6.41117090  1.42065000 15.08447067
   8.12979434  0.00000000  9.42962364
   8.13071410  0.00000000 19.16277925
   3.25151341  1.42065000 14.28731528
   3.28341910  1.42065000 24.01222917
   5.25929331  0.00000000 13.07844276
   5.24874487  0.00000000 22.78599666
   0.39282606  1.42065000  8.25507527
   0.40144987  1.42065000 17.93654674
   4.46136162  0.00000000  6.62541907
   4.44584513  0.00000000 16.31070318
   9.30556342  1.42065000 11.39584299
   9.29314013  1.42065000 21.16015339
   3.38236640  0.00000000 13.05413818
   3.37163754  0.00000000 22.78658902
   8.22044900  1.42065000  8.19588480
   8.21893254  1.42065000 17.93713911
   6.31647503  0.00000000  6.52687801
   6.32295246  0.00000000 16.31011110
   1.46603999  1.42065000 11.45067033
   1.47565746  1.42065000 21.15956102
   8.08117571  0.00000000 11.28819280
   8.07008210  0.00000000 21.01581019
   3.23050519  1.42065000  6.40745947
   3.22278710  1.42065000 16.16636027
   1.63054354  0.00000000  8.35671089
   1.62450790  0.00000000 18.08088965
   6.48737447  1.42065000 13.22206911
   6.47180290  1.42065000 22.93033956
 


--------------------------------------------------------------------------------------------------------


 k-point  1 :   0.0000 0.0000 0.0000  plane waves:   21819
 k-point  2 :   0.3333 0.0000 0.0000  plane waves:   21868
 k-point  3 :   0.0000 0.1111 0.0000  plane waves:   21841
 k-point  4 :   0.3333 0.1111 0.0000  plane waves:   21838
 k-point  5 :   0.0000 0.2222 0.0000  plane waves:   21773
 k-point  6 :   0.3333 0.2222 0.0000  plane waves:   21785
 k-point  7 :   0.0000 0.3333 0.0000  plane waves:   21738
 k-point  8 :   0.3333 0.3333 0.0000  plane waves:   21767
 k-point  9 :   0.0000 0.4444 0.0000  plane waves:   21786
 k-point 10 :   0.3333 0.4444 0.0000  plane waves:   21805

 maximum and minimum number of plane-waves per node :      3728     3573

 maximum number of plane-waves:     21868
 maximum index in each direction: 
   IXMAX=   18   IYMAX=    5   IZMAX=   54
   IXMIN=  -18   IYMIN=   -5   IZMIN=  -54

 WARNING: aliasing errors must be expected set NGX to  74 to avoid them
 WARNING: aliasing errors must be expected set NGY to  22 to avoid them
 WARNING: aliasing errors must be expected set NGZ to 218 to avoid them
 aliasing errors are usually negligible using standard VASP settings
 and one can safely disregard these warnings

 parallel 3D FFT for wavefunctions:
    minimum data exchange during FFTs selected (reduces bandwidth)
 parallel 3D FFT for charge:
    minimum data exchange during FFTs selected (reduces bandwidth)


 total amount of memory used by VASP on root node    78679. kBytes
========================================================================

   base      :      30000. kBytes
   nonl-proj :      13336. kBytes
   fftplans  :       1779. kBytes
   grid      :       4532. kBytes
   one-center:        279. kBytes
   wavefun   :      28753. kBytes
 
 Broyden mixing: mesh for mixing (old mesh)
   NGX = 37   NGY = 11   NGZ =109
  (NGX  =108   NGY  = 32   NGZ  =336)
  gives a total of  44363 points

 initial charge density was supplied:
 charge density of overlapping atoms calculated
 number of electron     310.0000000 magnetization      -0.0000000
 keeping initial charge density in first step


--------------------------------------------------------------------------------------------------------


 Maximum index for augmentation-charges          358 (set IRDMAX)


--------------------------------------------------------------------------------------------------------


 First call to EWALD:  gamma=   0.190
 Maximum number of real-space cells 3x 8x 1
 Maximum number of reciprocal cells 3x 1x 8

 FEWALD executed in parallel
    FEWALD:  cpu time    0.00: real time    0.00


----------------------------------------- Iteration    1(   1)  ---------------------------------------


    POTLOK:  cpu time    0.07: real time    0.07
    SETDIJ:  cpu time    0.01: real time    0.01
     EDDAV:  cpu time   11.88: real time   11.89
 BZINTS: Fermi energy: 19.862394;310.000000 electrons
         Band energy:2813.081572;  BLOECHL correction: -0.174768
       DOS:  cpu time    0.03: real time    0.03
    --------------------------------------------
      LOOP:  cpu time   11.99: real time   12.08

 eigenvalue-minimisations  :  7744
 total energy-change (2. order) : 0.4945005E+04  (-0.1295209E+05)
 number of electron     310.0000000 magnetization      -0.0000000
 augmentation part      310.0000000 magnetization      -0.0000000

 Free energy of the ion-electron system (eV)
  ---------------------------------------------------
  alpha Z        PSCENC =       775.65410562
  Ewald energy   TEWEN  =     72321.45417922
  -1/2 Hartree   DENC   =    -92791.40238238
  -exchange  EXHF       =         0.00000000
  -V(xc)+E(xc)   XCENC  =       769.49977342
  PAW double counting   =     17889.32420403   -17705.52277445
  entropy T*S    EENTRO =         0.00000000
  eigenvalues    EBANDS =      2813.08157213
  atomic energy  EATOM  =     20872.91649420
  ---------------------------------------------------
  free energy    TOTEN  =      4945.00517180 eV

  energy without entropy =     4945.00517180  energy(sigma->0) =     4945.00517180


--------------------------------------------------------------------------------------------------------




----------------------------------------- Iteration    1(   2)  ---------------------------------------


     EDDAV:  cpu time   11.99: real time   11.99
 BZINTS: Fermi energy:  6.358011;310.000000 electrons
         Band energy:***********;  BLOECHL correction: -0.045985
       DOS:  cpu time    0.03: real time    0.03
    --------------------------------------------
      LOOP:  cpu time   12.02: real time   12.12

 eigenvalue-minimisations  :  7856
 total energy-change (2. order) :-0.3958179E+04  (-0.3748490E+04)
 number of electron     310.0000000 magnetization      -0.0000000
 augmentation part      310.0000000 magnetization      -0.0000000

 Free energy of the ion-electron system (eV)
  ---------------------------------------------------
  alpha Z        PSCENC =       775.65410562
  Ewald energy   TEWEN  =     72321.45417922
  -1/2 Hartree   DENC   =    -92791.40238238
  -exchange  EXHF       =         0.00000000
  -V(xc)+E(xc)   XCENC  =       769.49977342
  PAW double counting   =     17889.32420403   -17705.52277445
  entropy T*S    EENTRO =         0.00000000
  eigenvalues    EBANDS =     -1145.09781792
  atomic energy  EATOM  =     20872.91649420
  ---------------------------------------------------
  free energy    TOTEN  =       986.82578175 eV

  energy without entropy =      986.82578175  energy(sigma->0) =      986.82578175


--------------------------------------------------------------------------------------------------------




----------------------------------------- Iteration    1(   3)  ---------------------------------------


     EDDAV:  cpu time   16.94: real time   16.96
 BZINTS: Fermi energy:  2.863973;310.000000 electrons
         Band energy:***********;  BLOECHL correction: -0.049183
       DOS:  cpu time    0.02: real time    0.03
    --------------------------------------------
      LOOP:  cpu time   16.97: real time   17.10

 eigenvalue-minimisations  : 12328
 total energy-change (2. order) :-0.1310470E+04  (-0.1234680E+04)
 number of electron     310.0000000 magnetization      -0.0000000
 augmentation part      310.0000000 magnetization      -0.0000000

 Free energy of the ion-electron system (eV)
  ---------------------------------------------------
  alpha Z        PSCENC =       775.65410562
  Ewald energy   TEWEN  =     72321.45417922
  -1/2 Hartree   DENC   =    -92791.40238238
  -exchange  EXHF       =         0.00000000
  -V(xc)+E(xc)   XCENC  =       769.49977342
  PAW double counting   =     17889.32420403   -17705.52277445
  entropy T*S    EENTRO =         0.00000000
  eigenvalues    EBANDS =     -2455.56753369
  atomic energy  EATOM  =     20872.91649420
  ---------------------------------------------------
  free energy    TOTEN  =      -323.64393402 eV

  energy without entropy =     -323.64393402  energy(sigma->0) =     -323.64393402


--------------------------------------------------------------------------------------------------------




----------------------------------------- Iteration    1(   4)  ---------------------------------------


     EDDAV:  cpu time   16.61: real time   16.62
 BZINTS: Fermi energy:  1.705490;310.000000 electrons
         Band energy:***********;  BLOECHL correction: -0.021121
       DOS:  cpu time    0.03: real time    0.03
    --------------------------------------------
      LOOP:  cpu time   16.64: real time   16.74

 eigenvalue-minimisations  : 12064
 total energy-change (2. order) :-0.1994953E+03  (-0.1946051E+03)
 number of electron     310.0000000 magnetization      -0.0000000
 augmentation part      310.0000000 magnetization      -0.0000000

 Free energy of the ion-electron system (eV)
  ---------------------------------------------------
  alpha Z        PSCENC =       775.65410562
  Ewald energy   TEWEN  =     72321.45417922
  -1/2 Hartree   DENC   =    -92791.40238238
  -exchange  EXHF       =         0.00000000
  -V(xc)+E(xc)   XCENC  =       769.49977342
  PAW double counting   =     17889.32420403   -17705.52277445
  entropy T*S    EENTRO =         0.00000000
  eigenvalues    EBANDS =     -2655.06280489
  atomic energy  EATOM  =     20872.91649420
  ---------------------------------------------------
  free energy    TOTEN  =      -523.13920522 eV

  energy without entropy =     -523.13920522  energy(sigma->0) =     -523.13920522


--------------------------------------------------------------------------------------------------------




----------------------------------------- Iteration    1(   5)  ---------------------------------------


     EDDAV:  cpu time   16.71: real time   16.72
 BZINTS: Fermi energy:  1.605555;310.000000 electrons
         Band energy:***********;  BLOECHL correction: -0.022362
       DOS:  cpu time    0.03: real time    0.03
    CHARGE:  cpu time    0.30: real time    0.30
    MIXING:  cpu time    0.00: real time    0.00
    --------------------------------------------
      LOOP:  cpu time   17.04: real time   17.15

 eigenvalue-minimisations  : 12176
 total energy-change (2. order) :-0.8963748E+01  (-0.8760188E+01)
 number of electron     310.0000445 magnetization       0.0055608
 augmentation part       59.9372433 magnetization       0.0000605

 Broyden mixing:
  rms(total) = 0.11690E+02    rms(broyden)= 0.11689E+02
  rms(prec ) = 0.11950E+02
  weight for this iteration     100.00

 Free energy of the ion-electron system (eV)
  ---------------------------------------------------
  alpha Z        PSCENC =       775.65410562
  Ewald energy   TEWEN  =     72321.45417922
  -1/2 Hartree   DENC   =    -92791.40238238
  -exchange  EXHF       =         0.00000000
  -V(xc)+E(xc)   XCENC  =       769.49977342
  PAW double counting   =     17889.32420403   -17705.52277445
  entropy T*S    EENTRO =         0.00000000
  eigenvalues    EBANDS =     -2664.02655291
  atomic energy  EATOM  =     20872.91649420
  ---------------------------------------------------
  free energy    TOTEN  =      -532.10295324 eV

  energy without entropy =     -532.10295324  energy(sigma->0) =     -532.10295324


--------------------------------------------------------------------------------------------------------




----------------------------------------- Iteration    1(   6)  ---------------------------------------


    POTLOK:  cpu time    0.07: real time    0.07
    SETDIJ:  cpu time    0.01: real time    0.01
     EDDAV:  cpu time   18.75: real time   18.77
 BZINTS: Fermi energy: -2.754120;310.000000 electrons
         Band energy:***********;  BLOECHL correction: -0.040063
       DOS:  cpu time    0.03: real time    0.03
    CHARGE:  cpu time    0.30: real time    0.30
    MIXING:  cpu time    0.00: real time    0.00
    --------------------------------------------
      LOOP:  cpu time   19.16: real time   19.28

 eigenvalue-minimisations  : 13936
 total energy-change (2. order) :-0.5655962E+02  (-0.1803922E+03)
 number of electron     310.0000156 magnetization       0.0205970
 augmentation part       99.6801821 magnetization      -0.0800196

 Broyden mixing:
  rms(total) = 0.20290E+02    rms(broyden)= 0.20289E+02
  rms(prec ) = 0.22329E+02
  weight for this iteration     100.00

 eigenvalues of (default mixing * dielectric matrix)
  average eigenvalue GAMMA=   0.1978
  0.1978

 Free energy of the ion-electron system (eV)
  ---------------------------------------------------
  alpha Z        PSCENC =       775.65410562
  Ewald energy   TEWEN  =     72321.45417922
  -1/2 Hartree   DENC   =    -92719.81555136
  -exchange  EXHF       =         0.00000000
  -V(xc)+E(xc)   XCENC  =       798.32243741
  PAW double counting   =     21306.71147794   -21081.99138996
  entropy T*S    EENTRO =         0.00000000
  eigenvalues    EBANDS =     -2861.91432784
  atomic energy  EATOM  =     20872.91649420
  ---------------------------------------------------
  free energy    TOTEN  =      -588.66257477 eV

  energy without entropy =     -588.66257477  energy(sigma->0) =     -588.66257477


--------------------------------------------------------------------------------------------------------




----------------------------------------- Iteration    1(   7)  ---------------------------------------


    POTLOK:  cpu time    0.07: real time    0.07
    SETDIJ:  cpu time    0.01: real time    0.01
     EDDAV:  cpu time   19.98: real time   20.00
 BZINTS: Fermi energy:  1.878703;310.000000 electrons
         Band energy:***********;  BLOECHL correction: -0.025628
       DOS:  cpu time    0.03: real time    0.03
    CHARGE:  cpu time    0.30: real time    0.30
    MIXING:  cpu time    0.00: real time    0.00
    --------------------------------------------
      LOOP:  cpu time   20.40: real time   20.67

 eigenvalue-minimisations  : 15040
 total energy-change (2. order) :-0.5832733E+02  (-0.1755210E+03)
 number of electron     310.0000272 magnetization       0.0199346
 augmentation part       79.3881997 magnetization       0.3835364

 Broyden mixing:
  rms(total) = 0.24854E+02    rms(broyden)= 0.24853E+02
  rms(prec ) = 0.29308E+02
  weight for this iteration     100.00

 eigenvalues of (default mixing * dielectric matrix)
  average eigenvalue GAMMA=   0.1001
  0.1972  0.0030

 Free energy of the ion-electron system (eV)
  ---------------------------------------------------
  alpha Z        PSCENC =       775.65410562
  Ewald energy   TEWEN  =     72321.45417922
  -1/2 Hartree   DENC   =    -93169.59103332
  -exchange  EXHF       =         0.00000000
  -V(xc)+E(xc)   XCENC  =       779.17230252
  PAW double counting   =     22099.64044536   -21908.84904743
  entropy T*S    EENTRO =         0.00000000
  eigenvalues    EBANDS =     -2417.38734640
  atomic energy  EATOM  =     20872.91649420
  ---------------------------------------------------
  free energy    TOTEN  =      -646.98990022 eV

  energy without entropy =     -646.98990022  energy(sigma->0) =     -646.98990022


--------------------------------------------------------------------------------------------------------




----------------------------------------- Iteration    1(   8)  ---------------------------------------


    POTLOK:  cpu time    0.07: real time    0.07
    SETDIJ:  cpu time    0.01: real time    0.01
     EDDAV:  cpu time   17.37: real time   17.39
 BZINTS: Fermi energy:  0.304633;310.000000 electrons
         Band energy:***********;  BLOECHL correction: -0.010749
       DOS:  cpu time    0.03: real time    0.03
    CHARGE:  cpu time    0.30: real time    0.30
    MIXING:  cpu time    0.00: real time    0.00
    --------------------------------------------
      LOOP:  cpu time   17.79: real time   17.89

 eigenvalue-minimisations  : 12712
 total energy-change (2. order) : 0.9929994E+02  (-0.7719532E+02)
 number of electron     310.0000338 magnetization       0.0802358
 augmentation part       73.0179828 magnetization      -0.3538324

 Broyden mixing:
  rms(total) = 0.16666E+02    rms(broyden)= 0.16666E+02
  rms(prec ) = 0.20728E+02
  weight for this iteration     100.00

 eigenvalues of (default mixing * dielectric matrix)
  average eigenvalue GAMMA=   0.1976
  0.3315  0.1306  0.1306

 Free energy of the ion-electron system (eV)
  ---------------------------------------------------
  alpha Z        PSCENC =       775.65410562
  Ewald energy   TEWEN  =     72321.45417922
  -1/2 Hartree   DENC   =    -93131.65590898
  -exchange  EXHF       =         0.00000000
  -V(xc)+E(xc)   XCENC  =       777.30282769
  PAW double counting   =     22262.11816758   -22074.05121149
  entropy T*S    EENTRO =         0.00000000
  eigenvalues    EBANDS =     -2351.42861173
  atomic energy  EATOM  =     20872.91649420
  ---------------------------------------------------
  free energy    TOTEN  =      -547.68995790 eV

  energy without entropy =     -547.68995790  energy(sigma->0) =     -547.68995790


--------------------------------------------------------------------------------------------------------




----------------------------------------- Iteration    1(   9)  ---------------------------------------


    POTLOK:  cpu time    0.07: real time    0.07
    SETDIJ:  cpu time    0.01: real time    0.01
     EDDAV:  cpu time   17.65: real time   17.66
 BZINTS: Fermi energy:  0.002227;310.000000 electrons
         Band energy:***********;  BLOECHL correction: -0.032878
       DOS:  cpu time    0.03: real time    0.03
    CHARGE:  cpu time    0.30: real time    0.30
    MIXING:  cpu time    0.00: real time    0.00
    --------------------------------------------
      LOOP:  cpu time   18.06: real time   18.16

 eigenvalue-minimisations  : 12944
 total energy-change (2. order) :-0.2510502E+03  (-0.1181401E+03)
 number of electron     310.0000239 magnetization       0.1148875
 augmentation part       75.1621566 magnetization      -0.0517449

 Broyden mixing:
  rms(total) = 0.29995E+02    rms(broyden)= 0.29995E+02
  rms(prec ) = 0.32275E+02
  weight for this iteration     100.00

 eigenvalues of (default mixing * dielectric matrix)
  average eigenvalue GAMMA=   0.1951
  0.3547  0.2439  0.0909  0.0909

 Free energy of the ion-electron system (eV)
  ---------------------------------------------------
  alpha Z        PSCENC =       775.65410562
  Ewald energy   TEWEN  =     72321.45417922
  -1/2 Hartree   DENC   =    -92467.64012586
  -exchange  EXHF       =         0.00000000
  -V(xc)+E(xc)   XCENC  =       772.68655204
  PAW double counting   =     22602.70838873   -22422.12331358
  entropy T*S    EENTRO =         0.00000000
  eigenvalues    EBANDS =     -3254.39643241
  atomic energy  EATOM  =     20872.91649420
  ---------------------------------------------------
  free energy    TOTEN  =      -798.74015203 eV

  energy without entropy =     -798.74015203  energy(sigma->0) =     -798.74015203


--------------------------------------------------------------------------------------------------------




----------------------------------------- Iteration    1(  10)  ---------------------------------------


    POTLOK:  cpu time    0.07: real time    0.07
    SETDIJ:  cpu time    0.01: real time    0.01
     EDDAV:  cpu time   17.72: real time   17.73
 BZINTS: Fermi energy: -0.787433;310.000000 electrons
         Band energy:***********;  BLOECHL correction: -0.021526
       DOS:  cpu time    0.03: real time    0.03
    CHARGE:  cpu time    0.30: real time    0.30
    MIXING:  cpu time    0.00: real time    0.00
    --------------------------------------------
      LOOP:  cpu time   18.13: real time   18.35

 eigenvalue-minimisations  : 13032
 total energy-change (2. order) : 0.2105711E+02  (-0.5179935E+02)
 number of electron     310.0000195 magnetization       0.1041922
 augmentation part       79.8074174 magnetization       0.6708263

 Broyden mixing:
  rms(total) = 0.26493E+02    rms(broyden)= 0.26492E+02
  rms(prec ) = 0.29932E+02
  weight for this iteration     100.00

 eigenvalues of (default mixing * dielectric matrix)
  average eigenvalue GAMMA=   0.2530
  0.4211  0.4211  0.2123  0.1051  0.1051

 Free energy of the ion-electron system (eV)
  ---------------------------------------------------
  alpha Z        PSCENC =       775.65410562
  Ewald energy   TEWEN  =     72321.45417922
  -1/2 Hartree   DENC   =    -92585.71874589
  -exchange  EXHF       =         0.00000000
  -V(xc)+E(xc)   XCENC  =       770.98392586
  PAW double counting   =     23178.52649549   -22999.33995940
  entropy T*S    EENTRO =         0.00000000
  eigenvalues    EBANDS =     -3112.15954124
  atomic energy  EATOM  =     20872.91649420
  ---------------------------------------------------
  free energy    TOTEN  =      -777.68304614 eV

  energy without entropy =     -777.68304614  energy(sigma->0) =     -777.68304614


--------------------------------------------------------------------------------------------------------




----------------------------------------- Iteration    1(  11)  ---------------------------------------


    POTLOK:  cpu time    0.08: real time    0.08
    SETDIJ:  cpu time    0.01: real time    0.01
     EDDAV:  cpu time   18.49: real time   18.51
 BZINTS: Fermi energy:  0.903070;310.000000 electrons
         Band energy:***********;  BLOECHL correction: -0.034149
       DOS:  cpu time    0.02: real time    0.02
    CHARGE:  cpu time    0.30: real time    0.30
    MIXING:  cpu time    0.00: real time    0.00
    --------------------------------------------
      LOOP:  cpu time   18.91: real time   19.14

 eigenvalue-minimisations  : 13720
 total energy-change (2. order) :-0.2359340E+02  (-0.5472765E+02)
 number of electron     310.0000252 magnetization       0.1608391
 augmentation part       77.3456633 magnetization      -0.7132883

 Broyden mixing:
  rms(total) = 0.26892E+02    rms(broyden)= 0.26891E+02
  rms(prec ) = 0.30763E+02
  weight for this iteration     100.00

 eigenvalues of (default mixing * dielectric matrix)
  average eigenvalue GAMMA=   0.3269
  0.6554  0.6554  0.3313  0.1092  0.1092  0.1011

 Free energy of the ion-electron system (eV)
  ---------------------------------------------------
  alpha Z        PSCENC =       775.65410562
  Ewald energy   TEWEN  =     72321.45417922
  -1/2 Hartree   DENC   =    -92703.29870737
  -exchange  EXHF       =         0.00000000
  -V(xc)+E(xc)   XCENC  =       771.09512673
  PAW double counting   =     23778.89334537   -23603.34755549
  entropy T*S    EENTRO =         0.00000000
  eigenvalues    EBANDS =     -3014.64343093
  atomic energy  EATOM  =     20872.91649420
  ---------------------------------------------------
  free energy    TOTEN  =      -801.27644264 eV

  energy without entropy =     -801.27644264  energy(sigma->0) =     -801.27644264


--------------------------------------------------------------------------------------------------------




----------------------------------------- Iteration    1(  12)  ---------------------------------------


    POTLOK:  cpu time    0.07: real time    0.07
    SETDIJ:  cpu time    0.01: real time    0.01
     EDDAV:  cpu time   18.50: real time   18.51
 BZINTS: Fermi energy: -0.008682;310.000000 electrons
         Band energy:***********;  BLOECHL correction: -0.022075
       DOS:  cpu time    0.02: real time    0.03
    CHARGE:  cpu time    0.30: real time    0.30
    MIXING:  cpu time    0.00: real time    0.00
    --------------------------------------------
      LOOP:  cpu time   18.91: real time   19.03

 eigenvalue-minimisations  : 13736
 total energy-change (2. order) : 0.2475892E+03  (-0.7840566E+02)
 number of electron     310.0000259 magnetization       0.1644099
 augmentation part       71.1755598 magnetization       0.2478601

 Broyden mixing:
  rms(total) = 0.21334E+02    rms(broyden)= 0.21334E+02
  rms(prec ) = 0.22322E+02
  weight for this iteration     100.00

 eigenvalues of (default mixing * dielectric matrix)
  average eigenvalue GAMMA=   0.2967
  0.6598  0.6598  0.3481  0.1099  0.1099  0.1091  0.0801

 Free energy of the ion-electron system (eV)
  ---------------------------------------------------
  alpha Z        PSCENC =       775.65410562
  Ewald energy   TEWEN  =     72321.45417922
  -1/2 Hartree   DENC   =    -93103.90201937
  -exchange  EXHF       =         0.00000000
  -V(xc)+E(xc)   XCENC  =       772.04101826
  PAW double counting   =     24036.56544313   -23864.49115073
  entropy T*S    EENTRO =         0.00000000
  eigenvalues    EBANDS =     -2363.92536013
  atomic energy  EATOM  =     20872.91649420
  ---------------------------------------------------
  free energy    TOTEN  =      -553.68728980 eV

  energy without entropy =     -553.68728980  energy(sigma->0) =     -553.68728980


--------------------------------------------------------------------------------------------------------




----------------------------------------- Iteration    1(  13)  ---------------------------------------


    POTLOK:  cpu time    0.07: real time    0.07
    SETDIJ:  cpu time    0.01: real time    0.01
     EDDAV:  cpu time   18.93: real time   18.94
 BZINTS: Fermi energy: -0.431412;310.000000 electrons
         Band energy:***********;  BLOECHL correction: -0.005992
       DOS:  cpu time    0.03: real time    0.03
    CHARGE:  cpu time    0.30: real time    0.30
    MIXING:  cpu time    0.00: real time    0.00
    --------------------------------------------
      LOOP:  cpu time   19.34: real time   19.45

 eigenvalue-minimisations  : 14112
 total energy-change (2. order) : 0.2568374E+02  (-0.2335907E+02)
 number of electron     310.0000255 magnetization       0.1780197
 augmentation part       72.1013146 magnetization       0.5821793

 Broyden mixing:
  rms(total) = 0.16752E+02    rms(broyden)= 0.16752E+02
  rms(prec ) = 0.17944E+02
  weight for this iteration     100.00

 eigenvalues of (default mixing * dielectric matrix)
  average eigenvalue GAMMA=   0.2909
  0.5958  0.5958  0.4853  0.1076  0.1076  0.1638  0.1638  0.1077

 Free energy of the ion-electron system (eV)
  ---------------------------------------------------
  alpha Z        PSCENC =       775.65410562
  Ewald energy   TEWEN  =     72321.45417922
  -1/2 Hartree   DENC   =    -93014.22939791
  -exchange  EXHF       =         0.00000000
  -V(xc)+E(xc)   XCENC  =       771.41347218
  PAW double counting   =     24133.80579354   -23961.96819384
  entropy T*S    EENTRO =         0.00000000
  eigenvalues    EBANDS =     -2427.05000009
  atomic energy  EATOM  =     20872.91649420
  ---------------------------------------------------
  free energy    TOTEN  =      -528.00354708 eV

  energy without entropy =     -528.00354708  energy(sigma->0) =     -528.00354708


--------------------------------------------------------------------------------------------------------




----------------------------------------- Iteration    1(  14)  ---------------------------------------


    POTLOK:  cpu time    0.07: real time    0.07
    SETDIJ:  cpu time    0.01: real time    0.01
     EDDAV:  cpu time   19.26: real time   19.27
 BZINTS: Fermi energy: -0.481223;310.000000 electrons
         Band energy:***********;  BLOECHL correction: -0.010191
       DOS:  cpu time    0.03: real time    0.03
    CHARGE:  cpu time    0.30: real time    0.30
    MIXING:  cpu time    0.00: real time    0.00
    --------------------------------------------
      LOOP:  cpu time   19.68: real time   19.90

 eigenvalue-minimisations  : 14416
 total energy-change (2. order) : 0.5707917E+02  (-0.1477775E+02)
 number of electron     310.0000293 magnetization       0.1719282
 augmentation part       71.1397966 magnetization       0.8640291

 Broyden mixing:
  rms(total) = 0.11026E+02    rms(broyden)= 0.11026E+02
  rms(prec ) = 0.12000E+02
  weight for this iteration     100.00

 eigenvalues of (default mixing * dielectric matrix)
  average eigenvalue GAMMA=   0.2901
  0.7884  0.5002  0.3074  0.3074  0.2787  0.1086  0.1086  0.1039  0.1079

 Free energy of the ion-electron system (eV)
  ---------------------------------------------------
  alpha Z        PSCENC =       775.65410562
  Ewald energy   TEWEN  =     72321.45417922
  -1/2 Hartree   DENC   =    -93115.11902828
  -exchange  EXHF       =         0.00000000
  -V(xc)+E(xc)   XCENC  =       771.10277558
  PAW double counting   =     24282.44258464   -24111.25832775
  entropy T*S    EENTRO =         0.00000000
  eigenvalues    EBANDS =     -2268.11715981
  atomic energy  EATOM  =     20872.91649420
  ---------------------------------------------------
  free energy    TOTEN  =      -470.92437659 eV

  energy without entropy =     -470.92437659  energy(sigma->0) =     -470.92437659


--------------------------------------------------------------------------------------------------------




----------------------------------------- Iteration    1(  15)  ---------------------------------------


    POTLOK:  cpu time    0.07: real time    0.07
    SETDIJ:  cpu time    0.01: real time    0.01
     EDDAV:  cpu time   19.26: real time   19.27
 BZINTS: Fermi energy: -0.300626;310.000000 electrons
         Band energy:***********;  BLOECHL correction: -0.014160
       DOS:  cpu time    0.03: real time    0.03
    CHARGE:  cpu time    0.30: real time    0.30
    MIXING:  cpu time    0.00: real time    0.00
    --------------------------------------------
      LOOP:  cpu time   19.68: real time   19.80

 eigenvalue-minimisations  : 14416
 total energy-change (2. order) : 0.4948384E+02  (-0.8204118E+01)
 number of electron     310.0000297 magnetization       0.1754578
 augmentation part       69.5815422 magnetization       0.4158272

 Broyden mixing:
  rms(total) = 0.77595E+01    rms(broyden)= 0.77592E+01
  rms(prec ) = 0.82556E+01
  weight for this iteration     100.00

 eigenvalues of (default mixing * dielectric matrix)
  average eigenvalue GAMMA=   0.3011
  0.9287  0.4685  0.3611  0.3611  0.3236  0.1086  0.1086  0.1098  0.1205  0.1205

 Free energy of the ion-electron system (eV)
  ---------------------------------------------------
  alpha Z        PSCENC =       775.65410562
  Ewald energy   TEWEN  =     72321.45417922
  -1/2 Hartree   DENC   =    -93056.31767260
  -exchange  EXHF       =         0.00000000
  -V(xc)+E(xc)   XCENC  =       768.83658287
  PAW double counting   =     24522.51921962   -24352.39459874
  entropy T*S    EENTRO =         0.00000000
  eigenvalues    EBANDS =     -2274.10885067
  atomic energy  EATOM  =     20872.91649420
  ---------------------------------------------------
  free energy    TOTEN  =      -421.44054047 eV

  energy without entropy =     -421.44054047  energy(sigma->0) =     -421.44054047


--------------------------------------------------------------------------------------------------------




----------------------------------------- Iteration    1(  16)  ---------------------------------------


    POTLOK:  cpu time    0.07: real time    0.07
    SETDIJ:  cpu time    0.01: real time    0.01
     EDDAV:  cpu time   19.25: real time   19.26
 BZINTS: Fermi energy: -0.501026;310.000000 electrons
         Band energy:***********;  BLOECHL correction: -0.025784
       DOS:  cpu time    0.03: real time    0.03
    CHARGE:  cpu time    0.30: real time    0.30
    MIXING:  cpu time    0.00: real time    0.00
    --------------------------------------------
      LOOP:  cpu time   19.67: real time   19.78

 eigenvalue-minimisations  : 14424
 total energy-change (2. order) : 0.8528675E+01  (-0.7794243E+01)
 number of electron     310.0000260 magnetization       0.1732668
 augmentation part       69.8385196 magnetization       0.6166798

 Broyden mixing:
  rms(total) = 0.65803E+01    rms(broyden)= 0.65800E+01
  rms(prec ) = 0.73460E+01
  weight for this iteration     100.00

 eigenvalues of (default mixing * dielectric matrix)
  average eigenvalue GAMMA=   0.2968
  0.9934  0.3931  0.3931  0.4351  0.3579  0.1083  0.1083  0.1349  0.1349  0.1131
  0.0931

 Free energy of the ion-electron system (eV)
  ---------------------------------------------------
  alpha Z        PSCENC =       775.65410562
  Ewald energy   TEWEN  =     72321.45417922
  -1/2 Hartree   DENC   =    -93010.56907271
  -exchange  EXHF       =         0.00000000
  -V(xc)+E(xc)   XCENC  =       767.76891057
  PAW double counting   =     24630.44517818   -24460.29107170
  entropy T*S    EENTRO =         0.00000000
  eigenvalues    EBANDS =     -2310.29058907
  atomic energy  EATOM  =     20872.91649420
  ---------------------------------------------------
  free energy    TOTEN  =      -412.91186569 eV

  energy without entropy =     -412.91186569  energy(sigma->0) =     -412.91186569


--------------------------------------------------------------------------------------------------------




----------------------------------------- Iteration    1(  17)  ---------------------------------------


    POTLOK:  cpu time    0.07: real time    0.07
    SETDIJ:  cpu time    0.01: real time    0.01
     EDDAV:  cpu time   18.93: real time   18.95
 BZINTS: Fermi energy: -0.581533;310.000000 electrons
         Band energy:***********;  BLOECHL correction: -0.038258
       DOS:  cpu time    0.03: real time    0.03
    CHARGE:  cpu time    0.30: real time    0.30
    MIXING:  cpu time    0.00: real time    0.00
    --------------------------------------------
      LOOP:  cpu time   19.35: real time   19.56

 eigenvalue-minimisations  : 14128
 total energy-change (2. order) : 0.1649296E+00  (-0.3933791E+01)
 number of electron     310.0000315 magnetization       0.1649311
 augmentation part       69.8258922 magnetization       0.7378167

 Broyden mixing:
  rms(total) = 0.65576E+01    rms(broyden)= 0.65573E+01
  rms(prec ) = 0.74306E+01
  weight for this iteration     100.00

 eigenvalues of (default mixing * dielectric matrix)
  average eigenvalue GAMMA=   0.2905
  1.0538  0.4158  0.4158  0.3849  0.3849  0.1084  0.1084  0.1586  0.1586  0.1124
  0.0925  0.0925

 Free energy of the ion-electron system (eV)
  ---------------------------------------------------
  alpha Z        PSCENC =       775.65410562
  Ewald energy   TEWEN  =     72321.45417922
  -1/2 Hartree   DENC   =    -92989.89111940
  -exchange  EXHF       =         0.00000000
  -V(xc)+E(xc)   XCENC  =       767.02350699
  PAW double counting   =     24741.61827454   -24571.38287273
  entropy T*S    EENTRO =         0.00000000
  eigenvalues    EBANDS =     -2330.13950457
  atomic energy  EATOM  =     20872.91649420
  ---------------------------------------------------
  free energy    TOTEN  =      -412.74693613 eV

  energy without entropy =     -412.74693613  energy(sigma->0) =     -412.74693613


--------------------------------------------------------------------------------------------------------




----------------------------------------- Iteration    1(  18)  ---------------------------------------


    POTLOK:  cpu time    0.07: real time    0.07
    SETDIJ:  cpu time    0.01: real time    0.01
     EDDAV:  cpu time   18.76: real time   18.78
 BZINTS: Fermi energy: -0.609303;310.000000 electrons
         Band energy:***********;  BLOECHL correction: -0.033557
       DOS:  cpu time    0.03: real time    0.03
    CHARGE:  cpu time    0.30: real time    0.30
    MIXING:  cpu time    0.00: real time    0.00
    --------------------------------------------
      LOOP:  cpu time   19.18: real time   19.29

 eigenvalue-minimisations  : 13992
 total energy-change (2. order) : 0.4139003E+01  (-0.2438050E+01)
 number of electron     310.0000295 magnetization       0.1668938
 augmentation part       69.8891022 magnetization       0.2228583

 Broyden mixing:
  rms(total) = 0.57680E+01    rms(broyden)= 0.57677E+01
  rms(prec ) = 0.63509E+01
  weight for this iteration     100.00

 eigenvalues of (default mixing * dielectric matrix)
  average eigenvalue GAMMA=   0.2901
  1.0654  0.4605  0.4605  0.3884  0.3884  0.1951  0.1951  0.1086  0.1086  0.1060
  0.1145  0.1145  0.0657

 Free energy of the ion-electron system (eV)
  ---------------------------------------------------
  alpha Z        PSCENC =       775.65410562
  Ewald energy   TEWEN  =     72321.45417922
  -1/2 Hartree   DENC   =    -92978.00751107
  -exchange  EXHF       =         0.00000000
  -V(xc)+E(xc)   XCENC  =       766.35464858
  PAW double counting   =     24871.81333138   -24701.45836864
  entropy T*S    EENTRO =         0.00000000
  eigenvalues    EBANDS =     -2337.33481231
  atomic energy  EATOM  =     20872.91649420
  ---------------------------------------------------
  free energy    TOTEN  =      -408.60793302 eV

  energy without entropy =     -408.60793302  energy(sigma->0) =     -408.60793302


--------------------------------------------------------------------------------------------------------




----------------------------------------- Iteration    1(  19)  ---------------------------------------


    POTLOK:  cpu time    0.07: real time    0.07
    SETDIJ:  cpu time    0.01: real time    0.01
     EDDAV:  cpu time   18.82: real time   18.83
 BZINTS: Fermi energy: -0.751113;310.000000 electrons
         Band energy:***********;  BLOECHL correction: -0.036826
       DOS:  cpu time    0.03: real time    0.03
    CHARGE:  cpu time    0.30: real time    0.30
    MIXING:  cpu time    0.00: real time    0.00
    --------------------------------------------
      LOOP:  cpu time   19.24: real time   19.35

 eigenvalue-minimisations  : 14040
 total energy-change (2. order) : 0.3793899E+01  (-0.2046688E+01)
 number of electron     310.0000272 magnetization       0.1807080
 augmentation part       70.0919530 magnetization       0.0817607

 Broyden mixing:
  rms(total) = 0.53438E+01    rms(broyden)= 0.53435E+01
  rms(prec ) = 0.61152E+01
  weight for this iteration     100.00

 eigenvalues of (default mixing * dielectric matrix)
  average eigenvalue GAMMA=   0.2939
  1.0898  0.5187  0.5187  0.3606  0.3606  0.2752  0.2752  0.1085  0.1085  0.1173
  0.1173  0.1132  0.0875  0.0638

 Free energy of the ion-electron system (eV)
  ---------------------------------------------------
  alpha Z        PSCENC =       775.65410562
  Ewald energy   TEWEN  =     72321.45417922
  -1/2 Hartree   DENC   =    -92955.48249900
  -exchange  EXHF       =         0.00000000
  -V(xc)+E(xc)   XCENC  =       766.00718220
  PAW double counting   =     24939.81996430   -24768.91149019
  entropy T*S    EENTRO =         0.00000000
  eigenvalues    EBANDS =     -2356.27197007
  atomic energy  EATOM  =     20872.91649420
  ---------------------------------------------------
  free energy    TOTEN  =      -404.81403371 eV

  energy without entropy =     -404.81403371  energy(sigma->0) =     -404.81403371


--------------------------------------------------------------------------------------------------------




----------------------------------------- Iteration    1(  20)  ---------------------------------------


    POTLOK:  cpu time    0.07: real time    0.07
    SETDIJ:  cpu time    0.01: real time    0.01
     EDDAV:  cpu time   19.33: real time   19.35
 BZINTS: Fermi energy: -0.729520;310.000000 electrons
         Band energy:***********;  BLOECHL correction: -0.063713
       DOS:  cpu time    0.03: real time    0.03
    CHARGE:  cpu time    0.30: real time    0.30
    MIXING:  cpu time    0.00: real time    0.00
    --------------------------------------------
      LOOP:  cpu time   19.74: real time   19.96

 eigenvalue-minimisations  : 14472
 total energy-change (2. order) : 0.1937646E+01  (-0.1533972E+01)
 number of electron     310.0000296 magnetization       0.1929510
 augmentation part       70.0932843 magnetization       0.2998514

 Broyden mixing:
  rms(total) = 0.46649E+01    rms(broyden)= 0.46646E+01
  rms(prec ) = 0.50916E+01
  weight for this iteration     100.00

 eigenvalues of (default mixing * dielectric matrix)
  average eigenvalue GAMMA=   0.2958
  1.0938  0.5662  0.5662  0.3408  0.3408  0.3487  0.3487  0.1085  0.1085  0.1328
  0.1328  0.1092  0.0907  0.0907  0.0585

 Free energy of the ion-electron system (eV)
  ---------------------------------------------------
  alpha Z        PSCENC =       775.65410562
  Ewald energy   TEWEN  =     72321.45417922
  -1/2 Hartree   DENC   =    -92950.79975409
  -exchange  EXHF       =         0.00000000
  -V(xc)+E(xc)   XCENC  =       766.11592638
  PAW double counting   =     25006.36174598   -24835.10554721
  entropy T*S    EENTRO =         0.00000000
  eigenvalues    EBANDS =     -2359.47353809
  atomic energy  EATOM  =     20872.91649420
  ---------------------------------------------------
  free energy    TOTEN  =      -402.87638799 eV

  energy without entropy =     -402.87638799  energy(sigma->0) =     -402.87638799


--------------------------------------------------------------------------------------------------------




----------------------------------------- Iteration    1(  21)  ---------------------------------------


    POTLOK:  cpu time    0.07: real time    0.07
    SETDIJ:  cpu time    0.01: real time    0.01
     EDDAV:  cpu time   19.03: real time   19.04
 BZINTS: Fermi energy: -0.702850;310.000000 electrons
         Band energy:***********;  BLOECHL correction: -0.066236
       DOS:  cpu time    0.03: real time    0.03
    CHARGE:  cpu time    0.30: real time    0.30
    MIXING:  cpu time    0.00: real time    0.00
    --------------------------------------------
      LOOP:  cpu time   19.45: real time   19.57

 eigenvalue-minimisations  : 14216
 total energy-change (2. order) : 0.4765355E+00  (-0.1116586E+01)
 number of electron     310.0000306 magnetization       0.2124315
 augmentation part       69.9338822 magnetization      -0.1097908

 Broyden mixing:
  rms(total) = 0.43322E+01    rms(broyden)= 0.43320E+01
  rms(prec ) = 0.48167E+01
  weight for this iteration     100.00

 eigenvalues of (default mixing * dielectric matrix)
  average eigenvalue GAMMA=   0.2886
  1.0937  0.5923  0.5923  0.3537  0.3537  0.3563  0.3563  0.1085  0.1085  0.1430
  0.1430  0.1079  0.0949  0.0949  0.0604  0.0588

 Free energy of the ion-electron system (eV)
  ---------------------------------------------------
  alpha Z        PSCENC =       775.65410562
  Ewald energy   TEWEN  =     72321.45417922
  -1/2 Hartree   DENC   =    -92945.11292520
  -exchange  EXHF       =         0.00000000
  -V(xc)+E(xc)   XCENC  =       766.16072844
  PAW double counting   =     25057.10505605   -24885.95072211
  entropy T*S    EENTRO =         0.00000000
  eigenvalues    EBANDS =     -2364.62676868
  atomic energy  EATOM  =     20872.91649420
  ---------------------------------------------------
  free energy    TOTEN  =      -402.39985246 eV

  energy without entropy =     -402.39985246  energy(sigma->0) =     -402.39985246


--------------------------------------------------------------------------------------------------------




----------------------------------------- Iteration    1(  22)  ---------------------------------------


    POTLOK:  cpu time    0.07: real time    0.07
    SETDIJ:  cpu time    0.01: real time    0.01
     EDDAV:  cpu time   19.18: real time   19.20
 BZINTS: Fermi energy: -0.755840;310.000000 electrons
         Band energy:***********;  BLOECHL correction: -0.042246
       DOS:  cpu time    0.03: real time    0.03
    CHARGE:  cpu time    0.30: real time    0.30
    MIXING:  cpu time    0.00: real time    0.00
    --------------------------------------------
      LOOP:  cpu time   19.60: real time   19.82

 eigenvalue-minimisations  : 14344
 total energy-change (2. order) : 0.8755905E-01  (-0.8015123E+00)
 number of electron     310.0000307 magnetization       0.2185469
 augmentation part       69.9042829 magnetization       0.2173390

 Broyden mixing:
  rms(total) = 0.45524E+01    rms(broyden)= 0.45522E+01
  rms(prec ) = 0.53190E+01
  weight for this iteration     100.00

 eigenvalues of (default mixing * dielectric matrix)
  average eigenvalue GAMMA=   0.2760
  1.0979  0.6011  0.6011  0.3526  0.3526  0.3562  0.3562  0.1084  0.1084  0.1432
  0.1432  0.1088  0.0926  0.0926  0.0608  0.0608  0.0549

 Free energy of the ion-electron system (eV)
  ---------------------------------------------------
  alpha Z        PSCENC =       775.65410562
  Ewald energy   TEWEN  =     72321.45417922
  -1/2 Hartree   DENC   =    -92925.34867935
  -exchange  EXHF       =         0.00000000
  -V(xc)+E(xc)   XCENC  =       766.20554668
  PAW double counting   =     25109.28217141   -24938.28008752
  entropy T*S    EENTRO =         0.00000000
  eigenvalues    EBANDS =     -2384.19602368
  atomic energy  EATOM  =     20872.91649420
  ---------------------------------------------------
  free energy    TOTEN  =      -402.31229341 eV

  energy without entropy =     -402.31229341  energy(sigma->0) =     -402.31229341


--------------------------------------------------------------------------------------------------------




----------------------------------------- Iteration    1(  23)  ---------------------------------------


    POTLOK:  cpu time    0.07: real time    0.07
    SETDIJ:  cpu time    0.01: real time    0.01
     EDDAV:  cpu time   18.36: real time   18.37
 BZINTS: Fermi energy: -0.769671;310.000000 electrons
         Band energy:***********;  BLOECHL correction: -0.055707
       DOS:  cpu time    0.03: real time    0.03
    CHARGE:  cpu time    0.30: real time    0.30
    MIXING:  cpu time    0.00: real time    0.00
    --------------------------------------------
      LOOP:  cpu time   18.78: real time   19.00

 eigenvalue-minimisations  : 13624
 total energy-change (2. order) : 0.1527896E+01  (-0.3674586E+00)
 number of electron     310.0000297 magnetization       0.2405017
 augmentation part       69.9147951 magnetization       0.0193725

 Broyden mixing:
  rms(total) = 0.37851E+01    rms(broyden)= 0.37851E+01
  rms(prec ) = 0.42265E+01
  weight for this iteration     100.00

 eigenvalues of (default mixing * dielectric matrix)
  average eigenvalue GAMMA=   0.2954
  1.0918  0.6928  0.6928  0.4061  0.4061  0.3764  0.3764  0.2022  0.2022  0.1085
  0.1085  0.1219  0.1219  0.1086  0.0931  0.0931  0.0603  0.0549

 Free energy of the ion-electron system (eV)
  ---------------------------------------------------
  alpha Z        PSCENC =       775.65410562
  Ewald energy   TEWEN  =     72321.45417922
  -1/2 Hartree   DENC   =    -92923.04545537
  -exchange  EXHF       =         0.00000000
  -V(xc)+E(xc)   XCENC  =       766.27518345
  PAW double counting   =     25135.88089010   -24964.95687929
  entropy T*S    EENTRO =         0.00000000
  eigenvalues    EBANDS =     -2384.96291489
  atomic energy  EATOM  =     20872.91649420
  ---------------------------------------------------
  free energy    TOTEN  =      -400.78439697 eV

  energy without entropy =     -400.78439697  energy(sigma->0) =     -400.78439697


--------------------------------------------------------------------------------------------------------




----------------------------------------- Iteration    1(  24)  ---------------------------------------


    POTLOK:  cpu time    0.07: real time    0.07
    SETDIJ:  cpu time    0.01: real time    0.01
     EDDAV:  cpu time   19.25: real time   19.27
 BZINTS: Fermi energy: -0.773396;310.000000 electrons
         Band energy:***********;  BLOECHL correction: -0.050487
       DOS:  cpu time    0.03: real time    0.03
    CHARGE:  cpu time    0.30: real time    0.30
    MIXING:  cpu time    0.00: real time    0.00
    --------------------------------------------
      LOOP:  cpu time   19.67: real time   19.78

 eigenvalue-minimisations  : 14408
 total energy-change (2. order) : 0.6046809E-01  (-0.3921827E+00)
 number of electron     310.0000301 magnetization       0.2424872
 augmentation part       69.9465613 magnetization      -0.0270049

 Broyden mixing:
  rms(total) = 0.38571E+01    rms(broyden)= 0.38570E+01
  rms(prec ) = 0.44518E+01
  weight for this iteration     100.00

 eigenvalues of (default mixing * dielectric matrix)
  average eigenvalue GAMMA=   0.2801
  1.0904  0.6859  0.6859  0.4053  0.4053  0.3786  0.3786  0.1960  0.1960  0.1085
  0.1085  0.1202  0.1202  0.1088  0.0927  0.0927  0.0600  0.0545  0.0331

 Free energy of the ion-electron system (eV)
  ---------------------------------------------------
  alpha Z        PSCENC =       775.65410562
  Ewald energy   TEWEN  =     72321.45417922
  -1/2 Hartree   DENC   =    -92915.41859756
  -exchange  EXHF       =         0.00000000
  -V(xc)+E(xc)   XCENC  =       766.66767198
  PAW double counting   =     25162.70264952   -24991.66622142
  entropy T*S    EENTRO =         0.00000000
  eigenvalues    EBANDS =     -2393.03421044
  atomic energy  EATOM  =     20872.91649420
  ---------------------------------------------------
  free energy    TOTEN  =      -400.72392888 eV

  energy without entropy =     -400.72392888  energy(sigma->0) =     -400.72392888


--------------------------------------------------------------------------------------------------------




----------------------------------------- Iteration    1(  25)  ---------------------------------------


    POTLOK:  cpu time    0.07: real time    0.07
    SETDIJ:  cpu time    0.01: real time    0.01
     EDDAV:  cpu time   16.35: real time   16.36
 BZINTS: Fermi energy: -0.764079;310.000000 electrons
         Band energy:***********;  BLOECHL correction: -0.053280
       DOS:  cpu time    0.03: real time    0.03
    CHARGE:  cpu time    0.30: real time    0.30
    MIXING:  cpu time    0.00: real time    0.00
    --------------------------------------------
      LOOP:  cpu time   16.76: real time   16.98

 eigenvalue-minimisations  : 11824
 total energy-change (2. order) :-0.3363541E-01  (-0.3677805E-01)
 number of electron     310.0000301 magnetization       0.2382735
 augmentation part       69.9202756 magnetization       0.1540978

 Broyden mixing:
  rms(total) = 0.37983E+01    rms(broyden)= 0.37983E+01
  rms(prec ) = 0.44013E+01
  weight for this iteration     100.00

 eigenvalues of (default mixing * dielectric matrix)
  average eigenvalue GAMMA=   0.2696
  1.0909  0.6838  0.6838  0.3988  0.3988  0.3739  0.3739  0.1950  0.1950  0.1085
  0.1085  0.1202  0.1202  0.1086  0.0918  0.0918  0.0681  0.0681  0.0595  0.0538

 Free energy of the ion-electron system (eV)
  ---------------------------------------------------
  alpha Z        PSCENC =       775.65410562
  Ewald energy   TEWEN  =     72321.45417922
  -1/2 Hartree   DENC   =    -92916.24342283
  -exchange  EXHF       =         0.00000000
  -V(xc)+E(xc)   XCENC  =       766.72451228
  PAW double counting   =     25164.74152080   -24993.67174725
  entropy T*S    EENTRO =         0.00000000
  eigenvalues    EBANDS =     -2392.33320633
  atomic energy  EATOM  =     20872.91649420
  ---------------------------------------------------
  free energy    TOTEN  =      -400.75756429 eV

  energy without entropy =     -400.75756429  energy(sigma->0) =     -400.75756429


--------------------------------------------------------------------------------------------------------




----------------------------------------- Iteration    1(  26)  ---------------------------------------


    POTLOK:  cpu time    0.07: real time    0.07
    SETDIJ:  cpu time    0.01: real time    0.01
     EDDAV:  cpu time   18.56: real time   18.57
 BZINTS: Fermi energy: -0.761409;310.000000 electrons
         Band energy:***********;  BLOECHL correction: -0.053521
       DOS:  cpu time    0.03: real time    0.03
    CHARGE:  cpu time    0.30: real time    0.30
    MIXING:  cpu time    0.00: real time    0.00
    --------------------------------------------
      LOOP:  cpu time   18.97: real time   19.08

 eigenvalue-minimisations  : 13808
 total energy-change (2. order) :-0.2818340E+00  (-0.3261561E-01)
 number of electron     310.0000301 magnetization       0.2376395
 augmentation part       69.9169585 magnetization       0.1752736

 Broyden mixing:
  rms(total) = 0.39009E+01    rms(broyden)= 0.39009E+01
  rms(prec ) = 0.45112E+01
  weight for this iteration     100.00

 eigenvalues of (default mixing * dielectric matrix)
  average eigenvalue GAMMA=   0.2608
  1.0895  0.6807  0.6807  0.3953  0.3953  0.3752  0.3752  0.1916  0.1916  0.1085
  0.1085  0.1052  0.1052  0.1196  0.1196  0.1087  0.0919  0.0919  0.0597  0.0542
  0.0278

 Free energy of the ion-electron system (eV)
  ---------------------------------------------------
  alpha Z        PSCENC =       775.65410562
  Ewald energy   TEWEN  =     72321.45417922
  -1/2 Hartree   DENC   =    -92916.48928587
  -exchange  EXHF       =         0.00000000
  -V(xc)+E(xc)   XCENC  =       766.75574220
  PAW double counting   =     25165.07115389   -24993.98971812
  entropy T*S    EENTRO =         0.00000000
  eigenvalues    EBANDS =     -2392.41206940
  atomic energy  EATOM  =     20872.91649420
  ---------------------------------------------------
  free energy    TOTEN  =      -401.03939826 eV

  energy without entropy =     -401.03939826  energy(sigma->0) =     -401.03939826


--------------------------------------------------------------------------------------------------------




----------------------------------------- Iteration    1(  27)  ---------------------------------------


    POTLOK:  cpu time    0.07: real time    0.07
    SETDIJ:  cpu time    0.01: real time    0.01
     EDDAV:  cpu time   16.27: real time   16.28
 BZINTS: Fermi energy: -0.760692;310.000000 electrons
         Band energy:***********;  BLOECHL correction: -0.052724
       DOS:  cpu time    0.03: real time    0.03
    CHARGE:  cpu time    0.30: real time    0.30
    MIXING:  cpu time    0.00: real time    0.00
    --------------------------------------------
      LOOP:  cpu time   16.68: real time   16.80

 eigenvalue-minimisations  : 11752
 total energy-change (2. order) : 0.2905909E-01  (-0.1693481E-02)
[...]
    153      -0.1561      0.00000
    154      -0.1127      0.00000
    155      -0.0328      0.00000
    156       0.0261      0.00000
    157       0.0489      0.00000
    158       0.0751      0.00000
    159       0.1202      0.00000
    160       0.2405      0.00000
    161       0.2535      0.00000
    162       0.2799      0.00000
    163       0.2926      0.00000
    164       0.3082      0.00000
    165       0.3214      0.00000
    166       0.3340      0.00000
    167       0.3670      0.00000
    168       0.3773      0.00000
    169       0.4084      0.00000
    170       0.4258      0.00000
    171       0.4500      0.00000
    172       0.4872      0.00000
    173       0.5129      0.00000
    174       0.5492      0.00000
    175       0.6338      0.00000
    176       0.6510      0.00000
    177       0.7188      0.00000
    178       0.7298      0.00000
    179       0.7723      0.00000
    180       0.8054      0.00000
    181       0.8876      0.00000
    182       0.9433      0.00000
    183       0.9527      0.00000
    184       0.9932      0.00000
    185       1.0603      0.00000
    186       1.1583      0.00000
    187       1.1790      0.00000
    188       1.2175      0.00000
    189       1.3264      0.00000
    190       1.4452      0.00000
    191       1.5319      0.00000
    192       1.7468      0.00000


--------------------------------------------------------------------------------------------------------


 soft charge-density along one line, spin component           1
         0         1         2         3         4         5         6         7         8         9
 total charge-density along one line
 
 soft charge-density along one line, spin component           2
         0         1         2         3         4         5         6         7         8         9
 total charge-density along one line
 
 pseudopotential strength for first ion, spin component:           1
 13.210 -16.158  -0.000  -0.074   0.002   0.000   0.093  -0.003
-16.158  19.792   0.000   0.094  -0.003  -0.000  -0.119   0.003
 -0.000   0.000  -9.790   0.000  -0.000  12.028  -0.000   0.000
 -0.074   0.094   0.000  -9.827   0.003  -0.000  12.075  -0.003
  0.002  -0.003  -0.000   0.003  -9.787   0.000  -0.003  12.023
  0.000  -0.000  12.028  -0.000   0.000 -14.680   0.000  -0.000
  0.093  -0.119  -0.000  12.075  -0.003   0.000 -14.742   0.004
 -0.003   0.003   0.000  -0.003  12.023  -0.000   0.004 -14.674
 pseudopotential strength for first ion, spin component:           2
 13.245 -16.205  -0.000  -0.076   0.001   0.000   0.095  -0.001
-16.205  19.852   0.000   0.096  -0.001  -0.000  -0.121   0.002
 -0.000   0.000  -9.822   0.000  -0.000  12.072  -0.000   0.000
 -0.076   0.096   0.000  -9.874   0.020  -0.000  12.141  -0.027
  0.001  -0.001  -0.000   0.020  -9.814   0.000  -0.027  12.061
  0.000  -0.000  12.072  -0.000   0.000 -14.743   0.000  -0.000
  0.095  -0.121  -0.000  12.141  -0.027   0.000 -14.834   0.037
 -0.001   0.002   0.000  -0.027  12.061  -0.000   0.037 -14.727
 total augmentation occupancy for first ion, spin component:           1
  2.337   0.182   0.000   0.209  -0.009   0.000   0.069  -0.003
  0.182   0.037   0.000   0.195  -0.006   0.000   0.025  -0.001
  0.000   0.000   1.647   0.000   0.000   0.113   0.000   0.000
  0.209   0.195   0.000   1.954   0.025   0.000   0.186  -0.003
 -0.009  -0.006   0.000   0.025   1.656   0.000  -0.004   0.112
  0.000   0.000   0.113   0.000   0.000   0.012   0.000   0.000
  0.069   0.025   0.000   0.186  -0.004   0.000   0.022  -0.000
 -0.003  -0.001   0.000  -0.003   0.112   0.000  -0.000   0.012
 total augmentation occupancy for first ion, spin component:           2
  0.007   0.005   0.000   0.002  -0.001   0.000   0.001   0.000
  0.005   0.003   0.000   0.005   0.002   0.000   0.002  -0.000
  0.000   0.000  -0.045   0.000   0.000  -0.004   0.000   0.000
  0.002   0.005   0.000  -0.034   0.023   0.000   0.006  -0.002
 -0.001   0.002   0.000   0.023  -0.044   0.000  -0.002  -0.005
  0.000   0.000  -0.004   0.000   0.000   0.001   0.000   0.000
  0.001   0.002   0.000   0.006  -0.002   0.000   0.002  -0.000
  0.000  -0.000   0.000  -0.002  -0.005   0.000  -0.000   0.001


------------------------ aborting loop because EDIFF is reached ----------------------------------------


    CHARGE:  cpu time    0.30: real time    0.30
    FORLOC:  cpu time    0.01: real time    0.01
    FORNL :  cpu time    6.28: real time    6.28
    STRESS:  cpu time    7.31: real time    7.31
    FORCOR:  cpu time    0.07: real time    0.07
    FORHAR:  cpu time    0.01: real time    0.01
    MIXING:  cpu time    0.00: real time    0.00

  FORCE on cell =-STRESS in cart. coord.  units (eV):
  Direction    XX          YY          ZZ          XY          YZ          ZX
  --------------------------------------------------------------------------------------
  Alpha Z   775.65411   775.65411   775.65411
  Ewald   78953.16355 85654.27915-92242.13251     0.00000     0.00000    91.81964
  Hartree 85614.04814 90405.98723-83072.90966    -0.00000    -0.00000    61.14390
  E(xc)   -1502.45451 -1504.46493 -1503.59483    -0.00000     0.00000    -0.14610
  Local  ************************170978.46471    -0.00000    -0.00000  -150.52250
  n-local -1073.53938 -1049.64231 -1080.63073     0.10712     0.02755     0.76252
  augment   701.53735   685.73384   704.36837     0.00000    -0.00000    -0.34296
  Kinetic  5421.05989  5290.49040  5439.24733    -0.30844    -0.19076    -3.58907
  Fock        0.00000     0.00000     0.00000     0.00000     0.00000     0.00000
  -------------------------------------------------------------------------------------
  Total      -1.68557    -7.55499    -1.53321     0.00000     0.00000    -0.87456
  in kB      -3.33499   -14.94801    -3.03355     0.00000     0.00000    -1.73038
  external pressure =       -7.11 kB  Pullay stress =        0.00 kB


 VOLUME and BASIS-vectors are now :
 -----------------------------------------------------------------------------
  energy-cutoff  :      520.00
  volume of cell :      809.77
      direct lattice vectors                 reciprocal lattice vectors
     9.694590000  0.000000000  0.000000000     0.103150314  0.000000000  0.000000000
     0.000000000  2.841300000  0.000000000     0.000000000  0.351951571  0.000000000
     0.000000000  0.000000000 29.397800000     0.000000000  0.000000000  0.034016151

  length of vectors
     9.694590000  2.841300000 29.397800000     0.103150314  0.351951571  0.034016151


 FORCES acting on ions
    electron-ion (+dipol)            ewald-force                    non-local-force                 convergence-correction
 -----------------------------------------------------------------------------------------------
   0.687E+02 -.131E-11 0.196E+04   -.685E+02 0.784E-14 -.199E+04   -.598E+00 0.962E-19 0.299E+02   0.373E+00 -.960E-13 0.167E+01
   0.208E+03 0.140E-12 0.840E+02   -.224E+03 -.575E-14 -.632E+02   0.164E+02 0.258E-19 -.194E+02   0.601E-02 -.264E-13 -.139E+01
   0.180E+03 0.640E-12 -.182E+04   -.194E+03 0.133E-13 0.184E+04   0.160E+02 0.304E-18 -.197E+02   -.134E+01 0.562E-13 -.667E+00
   0.220E+03 -.126E-11 0.108E+04   -.237E+03 0.101E-13 -.106E+04   0.171E+02 -.535E-19 -.177E+02   -.223E+00 0.534E-12 -.143E+01
   0.209E+03 0.174E-11 -.885E+03   -.225E+03 0.701E-14 0.906E+03   0.166E+02 -.171E-18 -.191E+02   0.303E-01 0.495E-13 -.145E+01
   -.183E+03 0.680E-12 0.179E+04   0.201E+03 -.390E-14 -.181E+04   -.168E+02 0.171E-18 0.186E+02   -.825E+00 -.290E-12 -.380E+00
   -.205E+03 0.860E-12 -.159E+03   0.221E+03 0.127E-13 0.141E+03   -.166E+02 -.226E-18 0.196E+02   -.138E-01 -.222E-13 -.143E+01
   -.212E+03 0.340E-12 0.811E+03   0.228E+03 -.864E-14 -.829E+03   -.162E+02 0.159E-18 0.198E+02   0.349E-01 -.273E-12 -.140E+01
   -.235E+03 0.400E-12 -.114E+04   0.251E+03 0.161E-13 0.112E+04   -.163E+02 0.559E-19 0.176E+02   -.928E-01 -.156E-12 -.197E+01
   -.273E+03 0.840E-12 0.535E+02   0.293E+03 0.330E-14 -.360E+02   -.200E+02 -.107E-18 -.161E+02   -.265E-01 -.499E-12 -.139E+01
   -.180E+03 0.108E-11 -.191E+04   0.200E+03 0.157E-14 0.192E+04   -.203E+02 -.271E-18 -.130E+02   0.439E+00 0.920E-13 0.134E+00
   -.292E+03 -.204E-11 0.105E+04   0.314E+03 -.331E-14 -.104E+04   -.219E+02 0.141E-18 -.102E+02   0.185E+00 0.225E-12 -.121E+01
   -.279E+03 0.126E-11 -.918E+03   0.298E+03 -.452E-14 0.936E+03   -.198E+02 0.383E-18 -.161E+02   -.248E-01 0.109E-12 -.149E+01
   0.258E+03 0.440E-12 0.178E+04   -.278E+03 0.772E-15 -.179E+04   0.200E+02 0.700E-20 0.134E+02   0.732E+00 0.294E-13 -.249E-01
   0.273E+03 0.480E-12 -.123E+03   -.293E+03 0.178E-13 0.108E+03   0.200E+02 0.722E-19 0.159E+02   -.106E-01 -.359E-13 -.144E+01
   0.279E+03 -.420E-12 0.844E+03   -.300E+03 0.117E-13 -.859E+03   0.202E+02 0.415E-18 0.163E+02   0.600E-02 -.853E-13 -.134E+01
   0.292E+03 -.760E-12 -.112E+04   -.312E+03 -.382E-14 0.111E+04   0.198E+02 0.169E-18 0.167E+02   0.290E+00 -.640E-13 -.108E+01
   -.134E+03 -.300E-12 0.892E+03   0.136E+03 0.116E-13 -.895E+03   -.161E+01 0.247E-20 0.420E+01   0.564E-01 -.993E-14 -.130E+01
   -.131E+03 -.800E-13 -.105E+04   0.133E+03 0.159E-16 0.104E+04   -.140E+01 -.206E-20 0.362E+01   -.259E+00 0.998E-13 -.143E+01
   -.118E+03 0.220E-12 0.197E+04   0.120E+03 0.141E-13 -.199E+04   -.174E+01 -.202E-18 0.254E+02   -.296E+00 -.135E-12 0.120E+01
   -.125E+03 -.104E-11 -.721E+02   0.126E+03 0.108E-13 0.692E+02   -.157E+01 0.424E-19 0.438E+01   0.131E-01 -.535E-13 -.144E+01
   0.135E+03 0.197E-13 0.986E+03   -.137E+03 0.415E-14 -.982E+03   0.131E+01 0.569E-19 -.327E+01   -.139E+00 -.384E-12 -.118E+01
   0.133E+03 -.220E-12 -.968E+03   -.134E+03 -.238E-15 0.972E+03   0.131E+01 0.762E-19 -.270E+01   0.508E-01 0.354E-12 -.131E+01
   0.123E+03 0.988E-12 0.687E+01   -.124E+03 0.223E-13 -.144E+01   0.992E+00 -.629E-20 -.397E+01   -.627E-02 0.389E-12 -.143E+01
   0.541E+02 -.770E-12 -.196E+04   -.563E+02 -.230E-14 0.198E+04   0.253E+01 -.453E-19 -.248E+02   -.152E+00 -.304E-12 0.150E+01
   0.428E+02 -.400E-12 0.418E+03   -.473E+02 0.113E-13 -.420E+03   0.440E+01 -.951E-18 0.371E+01   0.356E-01 -.363E-12 -.137E+01
   0.169E+01 0.200E-12 -.159E+04   -.820E+01 0.682E-15 0.158E+04   0.585E+01 -.455E-18 0.490E+01   0.121E+01 -.582E-13 -.329E+00
   0.378E+02 -.460E-12 0.138E+04   -.416E+02 0.177E-13 -.138E+04   0.372E+01 0.285E-18 0.118E+01   0.102E+00 0.245E-12 -.760E+00
   0.424E+02 0.120E-12 -.549E+03   -.462E+02 0.199E-13 0.546E+03   0.376E+01 0.373E-18 0.445E+01   -.427E-01 -.281E-13 -.140E+01
   -.761E+02 -.380E-12 0.141E+04   0.808E+02 0.471E-14 -.140E+04   -.504E+01 -.566E-19 -.114E+02   0.260E+00 -.636E-14 -.538E+00
   -.424E+02 -.160E-12 -.491E+03   0.465E+02 0.161E-13 0.496E+03   -.398E+01 -.597E-19 -.334E+01   0.301E-01 0.646E-14 -.145E+01
   -.320E+02 -.480E-12 0.491E+03   0.355E+02 0.224E-13 -.488E+03   -.350E+01 -.361E-19 -.135E+01   -.373E-01 0.124E-12 -.132E+01
   -.245E+02 0.212E-11 -.145E+04   0.294E+02 -.257E-14 0.146E+04   -.504E+01 0.709E-18 -.317E+01   -.130E+00 -.682E-12 -.800E+00
   0.366E+01 0.198E-12 0.364E+03   -.297E+01 0.868E-15 -.362E+03   -.742E+00 0.986E-20 -.351E+00   0.261E-01 0.158E-12 -.161E+01
   -.497E+02 -.233E-12 -.192E+04   0.497E+02 -.221E-14 0.192E+04   -.162E+00 0.106E-18 -.323E+00   -.421E-01 0.209E-12 -.912E+00
   0.209E+02 0.262E-11 0.151E+04   -.202E+02 0.186E-13 -.151E+04   -.323E+00 -.193E-19 -.517E+00   -.396E+00 0.310E-12 -.111E+01
   0.150E+02 -.116E-11 -.770E+03   -.142E+02 0.626E-14 0.772E+03   -.632E+00 0.129E-18 -.364E+00   0.914E-02 -.265E-12 -.163E+01
   -.102E+02 0.158E-12 0.188E+04   0.103E+02 -.157E-13 -.188E+04   0.275E+00 -.179E-19 0.159E+00   -.342E+00 -.452E-12 -.467E+00
   -.999E+01 -.663E-13 -.446E+03   0.897E+01 -.268E-14 0.447E+03   0.354E+00 -.343E-18 0.670E+00   0.226E-01 -.157E-12 -.169E+01
   -.156E+02 0.183E-12 0.674E+03   0.149E+02 0.115E-13 -.673E+03   0.648E+00 0.935E-19 0.579E+00   0.379E-02 -.531E-13 -.156E+01
   -.232E+02 0.105E-12 -.157E+04   0.238E+02 0.608E-14 0.157E+04   0.461E+00 0.499E-19 0.538E+00   -.711E+00 -.590E-13 -.145E+01
   0.441E+02 -.115E-12 0.740E+03   -.436E+02 -.292E-13 -.739E+03   -.490E+00 0.251E-18 0.766E+00   -.548E-01 -.443E-12 -.155E+01
   0.647E+02 0.231E-12 -.153E+04   -.637E+02 0.291E-14 0.153E+04   -.643E+00 -.388E-18 0.991E+00   0.202E+00 0.701E-12 -.100E+01
   0.229E+02 -.435E-12 0.186E+04   -.233E+02 0.181E-13 -.186E+04   -.100E+00 -.314E-19 -.288E+01   0.485E+00 -.183E-12 -.879E-01
   0.333E+02 -.336E-12 -.384E+03   -.328E+02 -.131E-13 0.385E+03   -.507E+00 -.121E-18 0.580E+00   0.542E-02 0.102E-12 -.168E+01
   -.414E+02 -.160E-12 0.144E+04   0.410E+02 -.662E-14 -.144E+04   0.112E+00 -.315E-18 -.618E+00   0.285E+00 -.515E-13 -.113E+01
   -.382E+02 -.525E-13 -.827E+03   0.378E+02 -.359E-14 0.829E+03   0.522E+00 0.121E-18 -.349E+00   -.736E-01 -.255E-13 -.169E+01
   -.357E+02 0.125E-14 0.304E+03   0.352E+02 -.131E-14 -.302E+03   0.491E+00 0.228E-18 -.553E+00   0.922E-02 0.935E-12 -.162E+01
   0.679E+01 0.600E-13 -.212E+04   -.827E+01 0.197E-13 0.211E+04   0.330E+00 -.200E-18 0.344E+01   0.799E+00 0.184E-12 0.726E-01
 -----------------------------------------------------------------------------------------------
   0.232E+01 0.349E-11 0.126E+02   -.210E-12 0.233E-12 0.455E-12   -.277E+01 0.456E-18 0.362E+02   0.457E+00 -.348E-12 -.488E+02
 
 
 POSITION                                       TOTAL-FORCE (eV/Angst)
 -----------------------------------------------------------------------------------
      3.30681      1.42065      4.69425         0.003640      0.000000      0.235643
      1.51130     -0.00000     12.69984         0.004246     -0.000000      0.020691
      1.51111      0.00000     22.40485        -0.132269      0.000000     -0.005529
      6.38415      1.42065      7.84716        -0.008120     -0.000000      0.004334
      6.35840      1.42065     17.55540        -0.084865     -0.000000      0.320523
      8.18729      0.00000      6.94648         0.003411     -0.000000     -0.014743
      8.18348      0.00000     16.69185         0.217142     -0.000000     -0.218082
      3.33724      1.42065     11.82139        -0.013237     -0.000000      0.037233
      3.33619      1.42065     21.54130        -0.332619     -0.000000     -0.856162
      7.73617      0.00000     13.17155        -0.012214      0.000000     -0.000208
      7.72084      0.00000     22.88670        -0.300566     -0.000000      1.090835
      2.83608      1.42065      8.32661        -0.021271      0.000000     -0.002918
      2.87354      1.42065     18.03725         0.021136     -0.000000     -0.044947
      2.00387     -0.00000      6.48980         0.021342      0.000000     -0.001939
      1.97375      0.00000     16.21000         0.056055      0.000000     -0.077004
      6.83156      1.42065     11.33063        -0.013349     -0.000000     -0.001220
      6.82105      1.42065     21.05945         0.012785     -0.000000      0.010327
      1.57406     -0.00000     10.22773        -0.004369      0.000000      0.023971
      1.56388      0.00000     19.93392        -0.086615     -0.000000     -0.089802
      6.37869      1.42065      5.40846        -0.080345     -0.000000      0.041338
      6.41117      1.42065     15.08447         0.209161      0.000000      0.049234
      8.13110      0.00000      9.43131         0.001663     -0.000000      0.009512
      8.13071      0.00000     19.16278        -0.214881      0.000000     -0.000572
      3.28313      1.42065     14.30152         0.050278      0.000000      0.027156
      3.28342      1.42065     24.01223         0.187249     -0.000000     -1.570092
      5.25975      0.00000     13.07476         0.003403      0.000000     -0.044803
      5.24874      0.00000     22.78600         0.549250     -0.000000      1.109620
      0.39338      1.42065      8.24728         0.027021     -0.000000     -0.022793
      0.40145      1.42065     17.93655        -0.104450     -0.000000     -0.028441
      4.42808      0.00000      6.67712        -0.042904     -0.000000      0.094188
      4.44585      0.00000     16.31070         0.207139     -0.000000     -0.272830
      9.30561      1.42065     11.39461        -0.009706      0.000000      0.005236
      9.29314      1.42065     21.16015        -0.253944      0.000000     -0.257078
      3.36966      0.00000     13.06877        -0.023510     -0.000000      0.020886
      3.37164      0.00000     22.78659        -0.215680     -0.000000      2.172676
      8.21977      1.42065      8.20144         0.038190      0.000000     -0.012351
      8.21893      1.42065     17.93714         0.223335     -0.000000     -0.274815
      6.34064     -0.00000      6.52660         0.054531     -0.000000     -0.027169
      6.32295      0.00000     16.31011        -0.640376     -0.000000      0.052643
      1.46472      1.42065     11.44797        -0.029546     -0.000000      0.002467
      1.47566      1.42065     21.15956         0.427182     -0.000000      0.328937
      8.07822     -0.00000     11.28396        -0.013327     -0.000000     -0.030423
      8.07008      0.00000     21.01581         0.535931      0.000000      0.118041
      3.25101      1.42065      6.29199         0.053111     -0.000000     -0.279797
      3.22279      1.42065     16.16636         0.013989     -0.000000      0.049799
      1.64280      0.00000      8.36545        -0.000609     -0.000000      0.001206
      1.62451      0.00000     18.08089         0.071327     -0.000000      0.165920
      6.48068      1.42065     13.20556        -0.004589      0.000000     -0.037605
      6.47180      1.42065     22.93034        -0.349158      0.000000     -1.821094
 -----------------------------------------------------------------------------------
    total drift:                                0.006922      0.000000     -0.001718


--------------------------------------------------------------------------------------------------------



  FREE ENERGIE OF THE ION-ELECTRON SYSTEM (eV)
  ---------------------------------------------------
  free  energy   TOTEN  =      -403.91008129 eV

  energy  without entropy=     -403.91008129  energy(sigma->0) =     -403.91008129
 
 d Force = 0.9181271E-04[-0.254E-04, 0.209E-03]  d Energy =-0.7364314E-03 0.828E-03
 d Force =-0.2282806E+00[-0.228E+00,-0.228E+00]  d Ewald  =-0.2282809E+00 0.381E-06


--------------------------------------------------------------------------------------------------------


    POTLOK:  cpu time    0.08: real time    0.09


--------------------------------------------------------------------------------------------------------




--------------------------------------------------------------------------------------------------------


  
 reached required accuracy - stopping structural energy minimisation
     LOOP+:  cpu time  112.60: real time  113.69
    4ORBIT:  cpu time    0.00: real time    0.00
 BZINTS: Fermi energy: -1.001012;310.000000 electrons
         Band energy:***********;  BLOECHL correction: -0.004607

 total amount of memory used by VASP on root node    78679. kBytes
========================================================================

   base      :      30000. kBytes
   nonl-proj :      13336. kBytes
   fftplans  :       1779. kBytes
   grid      :       4532. kBytes
   one-center:        279. kBytes
   wavefun   :      28753. kBytes
 
  
  
 General timing and accounting informations for this job:
 ========================================================
  
                  Total CPU time used (sec):     7781.535
                            User time (sec):     7758.636
                          System time (sec):       22.900
                         Elapsed time (sec):     7850.425
  
                   Maximum memory used (kb):      194312.
                   Average memory used (kb):           0.
  
                          Minor page faults:        19551
                          Major page faults:            0
                 Voluntary context switches:       729146
