 vasp.5.3.3 18Dez12 (build May 12 2016 12:04:25) complex                        
  
 executed on             LinuxIFC date 2019.03.04  18:51:55
 running on   64 total cores
 distrk:  each k-point on   64 cores,    1 groups
 distr:  one band on NCORES_PER_BAND=   8 cores,    8 groups


--------------------------------------------------------------------------------------------------------


 INCAR:
 POTCAR:   PAW_PBE Mn 06Sep2000                   
 POTCAR:   PAW_PBE O_s 07Sep2000                  
 POTCAR:    PAW_PBE Li 17Jan2003                  
 POTCAR:   PAW_PBE Mn 06Sep2000                   
  local pseudopotential read in
  partial core-charges read in
  atomic valenz-charges read in
  non local Contribution for L=           2  read in
    real space projection operators read in
  non local Contribution for L=           2  read in
    real space projection operators read in
  non local Contribution for L=           0  read in
    real space projection operators read in
  non local Contribution for L=           0  read in
    real space projection operators read in
  non local Contribution for L=           1  read in
    real space projection operators read in
  non local Contribution for L=           1  read in
    real space projection operators read in
    PAW grid and wavefunctions read in
 
   number of l-projection  operators is LMAX  =           6
   number of lm-projection operators is LMMAX =          18
 
 POTCAR:   PAW_PBE O_s 07Sep2000                  
  local pseudopotential read in
  atomic valenz-charges read in
  non local Contribution for L=           0  read in
    real space projection operators read in
  non local Contribution for L=           0  read in
    real space projection operators read in
  non local Contribution for L=           1  read in
    real space projection operators read in
  non local Contribution for L=           1  read in
    real space projection operators read in
    PAW grid and wavefunctions read in
 
   number of l-projection  operators is LMAX  =           4
   number of lm-projection operators is LMMAX =           8
 
 POTCAR:    PAW_PBE Li 17Jan2003                  
  local pseudopotential read in
  partial core-charges read in
  atomic valenz-charges read in
  non local Contribution for L=           0  read in
    real space projection operators read in
  non local Contribution for L=           0  read in
    real space projection operators read in
  non local Contribution for L=           1  read in
    real space projection operators read in
    PAW grid and wavefunctions read in
 
   number of l-projection  operators is LMAX  =           3
   number of lm-projection operators is LMMAX =           5
 

 ----------------------------------------------------------------------------- 
|                                                                             |
|  ADVICE TO THIS USER RUNNING 'VASP/VAMP'   (HEAR YOUR MASTER'S VOICE ...):  |
|                                                                             |
|      You have a (more or less) 'large supercell' and for larger cells       |
|      it might be more efficient to use real space projection operators      |
|      So try LREAL= Auto  in the INCAR   file.                               |
|      Mind: If you want to do a very accurate calculations keep the          |
|      reciprocal projection scheme          (i.e. LREAL=.FALSE.)             |
|                                                                             |
 ----------------------------------------------------------------------------- 

 PAW_PBE Mn 06Sep2000                   :
 energy of atom  1       EATOM= -416.8732
 kinetic energy error for atom=    0.0088 (will be added to EATOM!!)
 PAW_PBE O_s 07Sep2000                  :
 energy of atom  2       EATOM= -432.2909
 kinetic energy error for atom=    0.0164 (will be added to EATOM!!)
  PAW_PBE Li 17Jan2003                  :
 energy of atom  3       EATOM=   -5.3001
 kinetic energy error for atom=    0.0000 (will be added to EATOM!!)
 
 
 POSCAR: Li Mn30 O62  (P1) ~ CONTCAR (VASP)      
  positions in direct lattice
  velocities in cartesian coordinates
 exchange correlation table for  LEXCH =        8
   RHO(1)=    0.500       N(1)  =     2000
   RHO(2)=  100.500       N(2)  =     4000
 


--------------------------------------------------------------------------------------------------------


 ion  position               nearest neighbor table
   1  0.064  0.258  0.620-  52 1.90  52 1.90  72 1.93  72 1.93  63 1.93  31 1.94  10 2.92  10 2.92

   2  0.054  0.255  0.526-  51 1.89  51 1.89  32 1.92  71 1.93  64 1.93  71 1.93   9 2.92   9 2.92

   3  0.947  0.750  0.217-  33 1.79  50 1.88  50 1.88  70 1.96  70 1.96  65 2.00   8 2.98   8 2.98

   4  0.051  0.252  0.432-  49 1.89  49 1.89  34 1.92  69 1.93  69 1.93  66 1.94   7 2.93   7 2.93

   5  0.974  0.750  0.313-  48 1.90  48 1.90  35 1.92  68 1.93  68 1.93  67 1.95   6 2.93   6 2.93

   6  0.034  0.250  0.338-  47 1.90  47 1.90  36 1.92  67 1.93  67 1.93  68 1.94   5 2.93   5 2.93

   7  0.959  0.751  0.407-  46 1.89  46 1.89  37 1.91  66 1.93  66 1.93  69 1.94   4 2.93   4 2.93

   8  0.035  0.250  0.243-  45 1.90  45 1.90  65 1.92  65 1.92  70 1.93  38 1.94   3 2.98   3 2.98

   9  0.951  0.754  0.501-  44 1.89  44 1.89  39 1.90  64 1.93  64 1.93  71 1.94   2 2.92   2 2.92

  10  0.961  0.757  0.595-  43 1.89  43 1.89  40 1.90  63 1.93  63 1.93  72 1.94   1 2.92   1 2.92

  11  0.453  0.261  0.667-  42 1.88  41 1.89  41 1.89  62 1.95  62 1.95  53 1.99  93 2.66  93 2.66
                            93 2.78  93 2.78  20 3.02  20 3.02
  12  0.462  0.256  0.573-  40 1.89  40 1.89  43 1.92  54 1.92  61 1.93  61 1.93  19 2.92  19 2.92

  13  0.453  0.253  0.479-  39 1.89  39 1.89  44 1.92  60 1.93  60 1.93  55 1.93  18 2.92  18 2.92

  14  0.536  0.750  0.265-  38 1.90  38 1.90  45 1.92  59 1.93  59 1.93  56 1.95  17 2.94  17 2.94

  15  0.460  0.251  0.385-  37 1.90  37 1.90  58 1.92  58 1.92  46 1.93  57 1.94  16 2.93  16 2.93

  16  0.534  0.751  0.360-  36 1.89  36 1.89  47 1.91  57 1.94  57 1.94  58 1.95  15 2.93  15 2.93

  17  0.474  0.250  0.291-  35 1.90  35 1.90  48 1.92  56 1.93  56 1.93  59 1.94  14 2.94  14 2.94

  18  0.552  0.752  0.454-  34 1.89  34 1.89  49 1.91  55 1.93  55 1.94  60 1.94  13 2.92  13 2.92

  19  0.556  0.756  0.548-  32 1.89  32 1.89  51 1.90  54 1.93  54 1.93  61 1.94  12 2.92  12 2.92

  20  0.568  0.760  0.641-  31 1.88  31 1.88  52 1.89  62 1.93  53 1.99  53 2.00  93 2.73  11 3.02
                            11 3.02
  21  0.969  0.763  0.690-  78 1.87  78 1.87  88 1.93  42 1.98  42 1.99  41 2.04  93 2.74
  22  0.974  0.764  0.734-  79 1.89  79 1.90  83 1.90  83 1.90  89 1.93  73 1.93
  23  0.975  0.765  0.778-  80 1.90  80 1.90  84 1.90  84 1.90  74 1.93  90 1.93
  24  0.977  0.766  0.822-  81 1.90  81 1.90  85 1.90  85 1.90  75 1.93  91 1.94
  25  0.981  0.767  0.866-  82 1.90  82 1.90  86 1.90  86 1.90  92 1.91  76 1.95
  26  0.472  0.264  0.712-  73 1.90  73 1.90  88 1.91  88 1.92  83 1.92  78 1.95
  27  0.475  0.265  0.756-  74 1.90  74 1.90  89 1.90  89 1.90  84 1.93  79 1.93
  28  0.477  0.266  0.800-  75 1.90  75 1.90  90 1.90  90 1.90  80 1.93  85 1.93
  29  0.478  0.267  0.844-  76 1.90  76 1.90  91 1.90  91 1.90  86 1.93  81 1.94
  30  0.478  0.267  0.889-  87 1.83  77 1.89  77 1.89  92 1.92  92 1.92  82 1.96
  31  0.387  0.259  0.632-  20 1.88  20 1.88   1 1.94
  32  0.370  0.255  0.539-  19 1.89  19 1.89   2 1.92
  33  0.636  0.750  0.206-   3 1.79
  34  0.366  0.252  0.445-  18 1.89  18 1.89   4 1.92
  35  0.683  0.750  0.299-  17 1.90  17 1.90   5 1.92
  36  0.329  0.250  0.352-  16 1.89  16 1.89   6 1.92
  37  0.654  0.751  0.394-  15 1.90  15 1.90   7 1.91
  38  0.333  0.250  0.257-  14 1.90  14 1.90   8 1.94
  39  0.633  0.753  0.489-  13 1.89  13 1.89   9 1.90
  40  0.646  0.757  0.582-  12 1.89  12 1.89  10 1.90
  41  0.638  0.762  0.676-  11 1.89  11 1.89  93 1.91  21 2.04
  42  0.116  0.262  0.678-  11 1.88  21 1.98  21 1.99  93 2.25  93 2.25
  43  0.146  0.257  0.586-  10 1.89  10 1.89  12 1.92
  44  0.134  0.254  0.492-   9 1.89   9 1.89  13 1.92
  45  0.834  0.750  0.251-   8 1.90   8 1.90  14 1.92
  46  0.153  0.251  0.399-   7 1.89   7 1.89  15 1.93
  47  0.829  0.750  0.346-   6 1.90   6 1.90  16 1.91
  48  0.184  0.250  0.305-   5 1.90   5 1.90  17 1.92
  49  0.867  0.752  0.442-   4 1.89   4 1.89  18 1.91
  50  0.129  0.250  0.208-   3 1.88   3 1.88
  51  0.871  0.755  0.535-   2 1.89   2 1.89  19 1.90
  52  0.888  0.758  0.629-  20 1.89   1 1.90   1 1.90
  53  0.746  0.261  0.653-  93 1.97  93 1.97  11 1.99  20 1.99  20 2.00
  54  0.732  0.256  0.558-  12 1.92  19 1.93  19 1.93
  55  0.727  0.253  0.465-  13 1.93  18 1.93  18 1.94
  56  0.285  0.750  0.281-  17 1.93  17 1.93  14 1.95
  57  0.719  0.251  0.370-  16 1.94  16 1.94  15 1.94
  58  0.276  0.751  0.376-  15 1.92  15 1.92  16 1.95
  59  0.724  0.250  0.275-  14 1.93  14 1.93  17 1.94
  60  0.278  0.753  0.469-  13 1.93  13 1.93  18 1.94
  61  0.285  0.756  0.563-  12 1.93  12 1.93  19 1.94
  62  0.298  0.761  0.656-  93 1.77  20 1.93  11 1.95  11 1.95
  63  0.787  0.257  0.605-   1 1.93  10 1.93  10 1.93
  64  0.778  0.254  0.511-   2 1.93   9 1.93   9 1.93
  65  0.215  0.750  0.233-   8 1.92   8 1.92   3 2.00
  66  0.781  0.251  0.417-   7 1.93   7 1.93   4 1.94
  67  0.223  0.750  0.329-   6 1.93   6 1.93   5 1.95
  68  0.784  0.250  0.322-   5 1.93   5 1.93   6 1.94
  69  0.228  0.752  0.422-   4 1.93   4 1.93   7 1.94
  70  0.770  0.250  0.228-   8 1.93   3 1.96   3 1.96
  71  0.228  0.755  0.516-   2 1.93   2 1.93   9 1.94
  72  0.238  0.758  0.609-   1 1.93   1 1.93  10 1.94
  73  0.642  0.764  0.722-  26 1.90  26 1.90  22 1.93
  74  0.641  0.765  0.766-  27 1.90  27 1.90  23 1.93
  75  0.646  0.766  0.810-  28 1.90  28 1.90  24 1.93
  76  0.659  0.767  0.853-  29 1.90  29 1.90  25 1.95
  77  0.650  0.767  0.898-  30 1.89  30 1.89
  78  0.801  0.263  0.700-  21 1.87  21 1.87  26 1.95
  79  0.810  0.264  0.744-  22 1.89  22 1.90  27 1.93
  80  0.809  0.265  0.788-  23 1.90  23 1.90  28 1.93
  81  0.803  0.266  0.831-  24 1.90  24 1.90  29 1.94
  82  0.786  0.267  0.875-  25 1.90  25 1.90  30 1.96
  83  0.137  0.264  0.724-  22 1.90  22 1.90  26 1.92
  84  0.141  0.265  0.768-  23 1.90  23 1.90  27 1.93
  85  0.147  0.266  0.812-  24 1.90  24 1.90  28 1.93
  86  0.161  0.267  0.857-  25 1.90  25 1.90  29 1.93
  87  0.245  0.272  0.904-  30 1.83
  88  0.309  0.763  0.702-  26 1.91  26 1.92  21 1.93
  89  0.311  0.765  0.746-  27 1.90  27 1.90  22 1.93
  90  0.308  0.766  0.790-  28 1.90  28 1.90  23 1.93
  91  0.302  0.767  0.834-  29 1.90  29 1.90  24 1.94
  92  0.270  0.767  0.880-  25 1.91  30 1.92  30 1.92
  93  0.937  0.761  0.663-  62 1.77  41 1.91  53 1.97  53 1.97  42 2.25  42 2.25  11 2.66  11 2.66
                            20 2.73  21 2.74  11 2.78  11 2.78
 
  LATTYP: Found a simple orthorhombic cell.
 ALAT       =     2.8659999400
 B/A-ratio  =     1.5816469242
 C/A-ratio  =    34.8918360410
  
  Lattice vectors:
  
 A1 = (   0.0000000000,  -2.8659999400,   0.0000000000)
 A2 = (  -4.5329999900,   0.0000000000,   0.0000000000)
 A3 = (   0.0000000000,   0.0000000000,-100.0000000000)


Analysis of symmetry for initial positions (statically):
=====================================================================
 Subroutine PRICEL returns:
 Original cell was already a primitive cell.
 

 Routine SETGRP: Setting up the symmetry group for a 
 simple orthorhombic supercell.


 Subroutine GETGRP returns: Found  1 space group operations
 (whereof  1 operations were pure point group operations)
 out of a pool of  8 trial point group operations.


The static configuration has the point symmetry C_1 .


Analysis of symmetry for dynamics (positions and initial velocities):
=====================================================================
 Subroutine PRICEL returns:
 Original cell was already a primitive cell.
 

 Routine SETGRP: Setting up the symmetry group for a 
 simple orthorhombic supercell.


 Subroutine GETGRP returns: Found  1 space group operations
 (whereof  1 operations were pure point group operations)
 out of a pool of  8 trial point group operations.


The dynamic configuration has the point symmetry C_1 .


Analysis of magnetic symmetry:
=====================================================================

 Subroutine MAGSYM returns: Found  1 space group operations
 (whereof  1 operations were pure point group operations)
 out of a pool of  1 trial space group operations
 (whereof  1 operations were pure point group operations)
 and found also     1 'primitive' translations


The magnetic configuration has the point symmetry C_1 .


 irot  :   1
 --------------------------------------------------------------------
 isymop:   1   0   0
           0   1   0
           0   0   1

 gtrans:     0.0000000     0.0000000     0.0000000

 ptrans:     0.0000000     0.0000000     0.0000000
 rotmap:
 (   1->   1)  (   2->   2)  (   3->   3)  (   4->   4)  (   5->   5) 
 (   6->   6)  (   7->   7)  (   8->   8)  (   9->   9)  (  10->  10) 
 (  11->  11)  (  12->  12)  (  13->  13)  (  14->  14)  (  15->  15) 
 (  16->  16)  (  17->  17)  (  18->  18)  (  19->  19)  (  20->  20) 
 (  21->  21)  (  22->  22)  (  23->  23)  (  24->  24)  (  25->  25) 
 (  26->  26)  (  27->  27)  (  28->  28)  (  29->  29)  (  30->  30) 
 (  31->  31)  (  32->  32)  (  33->  33)  (  34->  34)  (  35->  35) 
 (  36->  36)  (  37->  37)  (  38->  38)  (  39->  39)  (  40->  40) 
 (  41->  41)  (  42->  42)  (  43->  43)  (  44->  44)  (  45->  45) 
 (  46->  46)  (  47->  47)  (  48->  48)  (  49->  49)  (  50->  50) 
 (  51->  51)  (  52->  52)  (  53->  53)  (  54->  54)  (  55->  55) 
 (  56->  56)  (  57->  57)  (  58->  58)  (  59->  59)  (  60->  60) 
 (  61->  61)  (  62->  62)  (  63->  63)  (  64->  64)  (  65->  65) 
 (  66->  66)  (  67->  67)  (  68->  68)  (  69->  69)  (  70->  70) 
 (  71->  71)  (  72->  72)  (  73->  73)  (  74->  74)  (  75->  75) 
 (  76->  76)  (  77->  77)  (  78->  78)  (  79->  79)  (  80->  80) 
 (  81->  81)  (  82->  82)  (  83->  83)  (  84->  84)  (  85->  85) 
 (  86->  86)  (  87->  87)  (  88->  88)  (  89->  89)  (  90->  90) 
 (  91->  91)  (  92->  92)  (  93->  93) 
 
 
 KPOINTS: Automatic mesh                          

Automatic generation of k-mesh.
Space group operators:
 irot       det(A)        alpha          n_x          n_y          n_z        tau_x        tau_y        tau_z
    1     1.000000     0.000000     1.000000     0.000000     0.000000     0.000000     0.000000     0.000000
 
 Subroutine IBZKPT returns following result:
 ===========================================
 
 Found      4 irreducible k-points:
 
 Following reciprocal coordinates:
            Coordinates               Weight
  0.000000  0.000000  0.000000      1.000000
  0.500000  0.000000  0.000000      1.000000
  0.000000  0.333333  0.000000      2.000000
  0.500000  0.333333  0.000000      2.000000
 
 Following cartesian coordinates:
            Coordinates               Weight
  0.000000  0.000000  0.000000      1.000000
  0.110302  0.000000  0.000000      1.000000
  0.000000  0.116306  0.000000      2.000000
  0.110302  0.116306  0.000000      2.000000
 
 TETIRR: Found     15 inequivalent tetrahedra from       36


--------------------------------------------------------------------------------------------------------




 Dimension of arrays:
   k-points           NKPTS =      4   k-points in BZ     NKDIM =      4   number of bands    NBANDS=    416
   number of dos      NEDOS =    301   number of ions     NIONS =     93
   non local maximal  LDIM  =      6   non local SUM 2l+1 LMDIM =     18
   total plane-waves  NPLWV = 164640
   max r-space proj   IRMAX =      1   max aug-charges    IRDMAX=   4858
   dimension x,y,z NGX =    24 NGY =   14 NGZ =  490
   dimension x,y,z NGXF=    48 NGYF=   28 NGZF=  980
   support grid    NGXF=    48 NGYF=   28 NGZF=  980
   ions per type =              30  62   1
 NGX,Y,Z   is equivalent  to a cutoff of   8.80,  8.12,  8.15 a.u.
 NGXF,Y,Z  is equivalent  to a cutoff of  17.60, 16.24, 16.29 a.u.


 I would recommend the setting:
   dimension x,y,z NGX =    22 NGY =   14 NGZ =  489
 SYSTEM =  unknown system                          
 POSCAR =  Li Mn30 O62  (P1) ~ CONTCAR (VASP)      

 Startparameter for this run:
   NWRITE =      1    write-flag & timer
   PREC   = normal    normal or accurate (medium, high low for compatibility)
   ISTART =      0    job   : 0-new  1-cont  2-samecut
   ICHARG =      2    charge: 1-file 2-atom 10-const
   ISPIN  =      2    spin polarized calculation?
   LNONCOLLINEAR =      F non collinear calculations
   LSORBIT =      F    spin-orbit coupling
   INIWAV =      1    electr: 0-lowe 1-rand  2-diag
   LASPH  =      F    aspherical Exc in radial PAW
   METAGGA=      F    non-selfconsistent MetaGGA calc.

 Electronic Relaxation 1
   ENCUT  =  400.0 eV  29.40 Ry    5.42 a.u.   7.39  4.67163.07*2*pi/ulx,y,z
   ENINI  =  400.0     initial cutoff
   ENAUG  =  500.7 eV  augmentation charge cutoff
   NELM   =     60;   NELMIN=  2; NELMDL= -5     # of ELM steps 
   EDIFF  = 0.1E-03   stopping-criterion for ELM
   LREAL  =      F    real-space projection
   NLSPLINE    = F    spline interpolate recip. space projectors
   LCOMPAT=      F    compatible to vasp.4.4
   GGA_COMPAT  = T    GGA compatible to vasp.4.4-vasp.4.6
   LMAXPAW     = -100 max onsite density
   LMAXMIX     =    4 max onsite mixed and CHGCAR
   VOSKOWN=      1    Vosko Wilk Nusair interpolation
   ROPT   =    0.00000   0.00000   0.00000
 Ionic relaxation
   EDIFFG = 0.1E-02   stopping-criterion for IOM
   NSW    =      0    number of steps for IOM
   NBLOCK =      1;   KBLOCK =      1    inner block; outer block 
   IBRION =     -1    ionic relax: 0-MD 1-quasi-New 2-CG
   NFREE  =      0    steps in history (QN), initial steepest desc. (CG)
   ISIF   =      2    stress and relaxation
   IWAVPR =     10    prediction:  0-non 1-charg 2-wave 3-comb
   ISYM   =      2    0-nonsym 1-usesym 2-fastsym
   LCORR  =      T    Harris-Foulkes like correction to forces

   POTIM  = 0.5000    time-step for ionic-motion
   TEIN   =    0.0    initial temperature
   TEBEG  =    0.0;   TEEND  =   0.0 temperature during run
   SMASS  =  -3.00    Nose mass-parameter (am)
   estimated Nose-frequenzy (Omega)   =  0.10E-29 period in steps =****** mass=  -0.470E-27a.u.
   SCALEE = 1.0000    scale energy and forces
   NPACO  =    256;   APACO  = 16.0  distance and # of slots for P.C.
   PSTRESS=    0.0 pullay stress

  Mass of Ions in am
   POMASS =  54.94 16.00  7.01
  Ionic Valenz
   ZVAL   =   7.00  6.00  1.00
  Atomic Wigner-Seitz radii
   RWIGS  =  -1.00 -1.00 -1.00
  virtual crystal weights 
   VCA    =   1.00  1.00  1.00
   NELECT =     583.0000    total number of electrons
   NUPDOWN=      -1.0000    fix difference up-down

 DOS related values:
   EMIN   =  10.00;   EMAX   =-10.00  energy-range for DOS
   EFERMI =   0.00
   ISMEAR =    -5;   SIGMA  =   0.20  broadening in eV -4-tet -1-fermi 0-gaus

 Electronic relaxation 2 (details)
   IALGO  =     38    algorithm
   LDIAG  =      T    sub-space diagonalisation (order eigenvalues)
   LSUBROT=      T    optimize rotation matrix (better conditioning)
   TURBO    =      0    0=normal 1=particle mesh
   IRESTART =      0    0=no restart 2=restart with 2 vectors
   NREBOOT  =      0    no. of reboots
   NMIN     =      0    reboot dimension
   EREF     =   0.00    reference energy to select bands
   IMIX   =      4    mixing-type and parameters
     AMIX     =   0.40;   BMIX     =  1.00
     AMIX_MAG =   1.60;   BMIX_MAG =  1.00
     AMIN     =   0.01
     WC   =   100.;   INIMIX=   1;  MIXPRE=   1;  MAXMIX= -45

 Intra band minimization:
   WEIMIN = 0.0000     energy-eigenvalue tresh-hold
   EBREAK =  0.60E-07  absolut break condition
   DEPER  =   0.30     relativ break condition  

   TIME   =   0.40     timestep for ELM

  volume/ion in A,a.u.               =      13.97        94.27
  Fermi-wavevector in a.u.,A,eV,Ry     =   1.253364  2.368514 21.373666  1.570920
  Thomas-Fermi vector in A             =   2.387220
 
 Write flags
   LWAVE  =      F    write WAVECAR
   LCHARG =      F    write CHGCAR
   LVTOT  =      F    write LOCPOT, total local potential
   LVHAR  =      F    write LOCPOT, Hartree potential only
   LELF   =      F    write electronic localiz. function (ELF)
   LORBIT =      0    0 simple, 1 ext, 2 COOP (PROOUT)


 Dipole corrections
   LMONO  =      F    monopole corrections only (constant potential shift)
   LDIPOL =      F    correct potential (dipole corrections)
   IDIPOL =      0    1-x, 2-y, 3-z, 4-all directions 
   EPSILON=  1.0000000 bulk dielectric constant

 LDA+U is selected, type is set to LDAUTYPE =  2
   angular momentum for each species LDAUL =     2   -1    0
   U (eV)           for each species LDAUU =   3.9  0.0  1.0
   J (eV)           for each species LDAUJ =   0.0  0.0  0.0
 Exchange correlation treatment:
   GGA     =    --    GGA type
   LEXCH   =     8    internal setting for exchange type
   VOSKOWN=      1    Vosko Wilk Nusair interpolation
   LHFCALC =     F    Hartree Fock is set to
   LHFONE  =     F    Hartree Fock one center treatment
   AEXX    =    0.0000 exact exchange contribution

 Linear response parameters
   LEPSILON=     F    determine dielectric tensor
   LRPA    =     F    only Hartree local field effects (RPA)
   LNABLA  =     F    use nabla operator in PAW spheres
   LVEL    =     F    velocity operator in full k-point grid
   LINTERFAST=   F  fast interpolation
   KINTER  =     0    interpolate to denser k-point grid
   CSHIFT  =0.1000    complex shift for real part using Kramers Kronig
   OMEGAMAX=  -1.0    maximum frequency
   DEG_THRESHOLD= 0.2000000E-02 threshold for treating states as degnerate
   RTIME   =    0.100 relaxation time in fs

 Orbital magnetization related:
   ORBITALMAG=     F  switch on orbital magnetization
   LCHIMAG   =     F  perturbation theory with respect to B field
   DQ        =  0.001000  dq finite difference perturbation B field



--------------------------------------------------------------------------------------------------------


 Static calculation
 charge density and potential will be updated during run
 spin polarized calculation
 Variant of blocked Davidson
 Davidson routine will perform the subspace rotation
 perform sub-space diagonalisation
    after iterative eigenvector-optimisation
 modified Broyden-mixing scheme, WC =      100.0
 initial mixing is a Kerker type mixing with AMIX =  0.4000 and BMIX =      1.0000
 Hartree-type preconditioning will be used
 using additional bands          124
 reciprocal scheme for non local part
 use partial core corrections
 calculate Harris-corrections to forces 
   (improved forces if not selfconsistent)
 use gradient corrections 
 use of overlap-Matrix (Vanderbilt PP)
 Fermi weights with tetrahedron method with Bloechl corrections


--------------------------------------------------------------------------------------------------------


  energy-cutoff  :      400.00
  volume of cell :     1299.16
      direct lattice vectors                 reciprocal lattice vectors
     4.532999990  0.000000000  0.000000000     0.220604457  0.000000000  0.000000000
     0.000000000  2.865999940  0.000000000     0.000000000  0.348918360  0.000000000
     0.000000000  0.000000000100.000000000     0.000000000  0.000000000  0.010000000

  length of vectors
     4.532999990  2.865999940100.000000000     0.220604457  0.348918360  0.010000000


 
 k-points in units of 2pi/SCALE and weight: Automatic mesh                          
   0.00000000  0.00000000  0.00000000       0.167
   0.11030223  0.00000000  0.00000000       0.167
   0.00000000  0.11630612  0.00000000       0.333
   0.11030223  0.11630612  0.00000000       0.333
 
 k-points in reciprocal lattice and weights: Automatic mesh                          
   0.00000000  0.00000000  0.00000000       0.167
   0.50000000  0.00000000  0.00000000       0.167
   0.00000000  0.33333333  0.00000000       0.333
   0.50000000  0.33333333  0.00000000       0.333
 
 position of ions in fractional coordinates (direct lattice) 
   0.06442146  0.25804824  0.61957635
   0.05351403  0.25465818  0.52607519
   0.94689952  0.74966888  0.21704147
   0.05084559  0.25177930  0.43249612
   0.97415163  0.75001158  0.31265330
   0.03407737  0.25020940  0.33810133
   0.95928746  0.75134645  0.40731838
   0.03453401  0.24970550  0.24285370
   0.95088786  0.75389554  0.50106604
   0.96106128  0.75734711  0.59459328
   0.45332498  0.26124232  0.66733124
   0.46179551  0.25638124  0.57285834
   0.45259355  0.25309846  0.47932852
   0.53643673  0.74975458  0.26505503
   0.45950673  0.25086260  0.38538508
   0.53384209  0.75052680  0.36006138
   0.47431322  0.24983700  0.29059412
   0.55213243  0.75246922  0.45426334
   0.55618581  0.75553023  0.54780968
   0.56788635  0.75965856  0.64125680
   0.96878003  0.76261946  0.69023788
   0.97447536  0.76423693  0.73395131
   0.97539224  0.76537091  0.77769483
   0.97652421  0.76628514  0.82173126
   0.98070867  0.76685110  0.86623991
   0.47184527  0.26364542  0.71211978
   0.47495228  0.26481335  0.75579150
   0.47702931  0.26587975  0.79967231
   0.47751843  0.26661233  0.84394150
   0.47771532  0.26722362  0.88875229
   0.38700530  0.25904049  0.63230034
   0.36962299  0.25537153  0.53889465
   0.63551240  0.74959223  0.20597944
   0.36604251  0.25234152  0.44534158
   0.68276402  0.74985919  0.29868806
   0.32881135  0.25046487  0.35195378
   0.65354853  0.75094031  0.39417780
   0.33314098  0.24974334  0.25675184
   0.63305103  0.75322857  0.48863045
   0.64578108  0.75656199  0.58200231
   0.63801192  0.76150514  0.67637935
   0.11610726  0.26207659  0.67822642
   0.14616409  0.25716915  0.58564764
   0.13403873  0.25375135  0.49202362
   0.83430043  0.74971244  0.25141944
   0.15340312  0.25125335  0.39873985
   0.82886075  0.75025635  0.34637472
   0.18357882  0.24997684  0.30461954
   0.86669457  0.75189073  0.44162432
   0.12893926  0.24965904  0.20809116
   0.87115831  0.75481044  0.53526454
   0.88790029  0.75839894  0.62914651
   0.74606398  0.26087240  0.65254893
   0.73246110  0.25567406  0.55802797
   0.72651890  0.25258817  0.46458999
   0.28546828  0.74981682  0.28092761
   0.71888927  0.25058158  0.37000339
   0.27591017  0.75079151  0.37564246
   0.72435533  0.24976591  0.27479536
   0.27790714  0.75298035  0.46919365
   0.28466690  0.75620232  0.56280224
   0.29797178  0.76084836  0.65616505
   0.78662269  0.25749235  0.60490249
   0.77812776  0.25404205  0.51141208
   0.21505400  0.74969857  0.23298503
   0.78099993  0.25141307  0.41748518
   0.22321720  0.75016720  0.32850671
   0.78428600  0.25004370  0.32230690
   0.22794006  0.75168858  0.42243520
   0.77042851  0.24967212  0.22771593
   0.22768443  0.75452472  0.51591749
   0.23817018  0.75777561  0.60937984
   0.64217619  0.76374105  0.72183537
   0.64093709  0.76490364  0.76570335
   0.64591279  0.76595534  0.80950526
   0.65904805  0.76666295  0.85324619
   0.65035354  0.76745223  0.89824282
   0.80065666  0.26291621  0.69959702
   0.81033531  0.26432462  0.74387059
   0.80941178  0.26545764  0.78760547
   0.80318493  0.26634007  0.83138265
   0.78562870  0.26691730  0.87501741
   0.13662531  0.26410783  0.72380172
   0.14143649  0.26527807  0.76773285
   0.14738998  0.26622289  0.81194715
   0.16099708  0.26684039  0.85683118
   0.24469501  0.27230299  0.90364246
   0.30918488  0.76344915  0.70177328
   0.31081019  0.76471406  0.74571787
   0.30842602  0.76579350  0.78978595
   0.30186861  0.76656488  0.83426979
   0.27034238  0.76749407  0.88008818
   0.93701179  0.76110108  0.66286788
 
 position of ions in cartesian coordinates  (Angst):
   0.29202250  0.73956625 61.95763547
   0.24257911  0.72985033 52.60751914
   4.29229551  2.14855096 21.70414741
   0.23048307  0.72159945 43.24961241
   4.41582934  2.14953315 31.26533044
   0.15447270  0.71710014 33.81013256
   4.34845005  2.15335887 40.73183816
   0.15654266  0.71565596 24.28536957
   4.31037467  2.16066456 50.10660382
   4.35649077  2.17055678 59.45932777
   2.05492214  0.74872046 66.73312353
   2.09331905  0.73478861 57.28583362
   2.05160655  0.72538017 47.93285225
   2.43166767  2.14879659 26.50550328
   2.08294402  0.71897220 38.53850781
   2.41990620  2.15100977 36.00613774
   2.15006183  0.71603283 29.05941204
   2.50281630  2.15657674 45.42633427
   2.52119029  2.16534959 54.78096819
   2.57422882  2.17718138 64.12567982
   4.39147989  2.18566732 69.02378811
   4.41729679  2.19030299 73.39513116
   4.42145302  2.19355298 77.76948311
   4.42658425  2.19617317 82.17312639
   4.44555237  2.19779521 86.62399089
   2.13887458  0.75560776 71.21197791
   2.15295869  0.75895503 75.57915043
   2.16237385  0.76201135 79.96723148
   2.16459104  0.76411093 84.39414975
   2.16548354  0.76586288 88.87522909
   1.75429504  0.74241002 63.23003399
   1.67550103  0.73189479 53.88946452
   2.88077769  2.14833128 20.59794405
   1.65927070  0.72321079 44.53415814
   3.09496928  2.14909640 29.86880645
   1.49050183  0.71783231 35.19537795
   2.96253548  2.15219487 39.41778016
   1.51012804  0.71576440 25.67518443
   2.86962030  2.15875304 48.86304450
   2.92732561  2.16830661 58.20023094
   2.89210803  2.18247367 67.63793481
   0.52631419  0.75111149 67.82264234
   0.66256183  0.73704677 58.56476447
   0.60759756  0.72725137 49.20236195
   3.78188383  2.14867582 25.14194436
   0.69537635  0.72009209 39.87398516
   3.75722577  2.15023466 34.63747165
   0.83216280  0.71643361 30.46195377
   3.92872647  2.15491880 44.16243172
   0.58448166  0.71552281 20.80911630
   3.94896063  2.16328666 53.52645379
   4.02485199  2.17357132 62.91465147
   3.38190803  0.74766029 65.25489339
   3.32024618  0.73276183 55.80279669
   3.29331017  0.72391769 46.45899942
   1.29402769  2.14897496 28.09276148
   3.25872508  0.71816678 37.00033857
   1.25070079  2.15176842 37.56424631
   3.28350270  0.71582907 27.47953565
   1.25975306  2.15804165 46.91936520
   1.29039507  2.16727579 56.28022407
   1.35070609  2.18059135 65.61650523
   3.56576067  0.73797306 60.49024945
   3.52725314  0.72808450 51.14120788
   0.97483977  2.14863606 23.29850287
   3.54027268  0.72054985 41.74851832
   1.01184357  2.14997916 32.85067082
   3.55516842  0.71662522 32.23069020
   1.03325230  2.15433944 42.24352016
   3.49235244  0.71556029 22.77159267
   1.03209352  2.16246781 51.59174875
   1.07962541  2.17178486 60.93798433
   2.91098466  2.18888179 72.18353739
   2.90536782  2.19221379 76.57033511
   2.92792265  2.19522797 80.95052557
   2.98746480  2.19725597 85.32461873
   2.94805261  2.19951803 89.82428229
   3.62937663  0.75351785 69.95970179
   3.67324996  0.75755435 74.38705907
   3.66906361  0.76080157 78.76054680
   3.64083730  0.76333062 83.13826530
   3.56125490  0.76498496 87.50174091
   0.61932255  0.75693301 72.38017237
   0.64113163  0.76028693 76.77328512
   0.66811877  0.76299480 81.19471499
   0.72979976  0.76476454 85.68311766
   1.10920250  0.78042035 90.36424642
   1.40153507  2.18804523 70.17732765
   1.40890257  2.19167046 74.57178750
   1.39809514  2.19476411 78.97859462
   1.36837042  2.19697491 83.42697935
   1.22546200  2.19963795 88.00881778
   4.24747444  2.18131565 66.28678761
 


--------------------------------------------------------------------------------------------------------


 k-point  1 :   0.0000 0.0000 0.0000  plane waves:   23717
 k-point  2 :   0.5000 0.0000 0.0000  plane waves:   23738
 k-point  3 :   0.0000 0.3333 0.0000  plane waves:   23596
 k-point  4 :   0.5000 0.3333 0.0000  plane waves:   23470

 maximum and minimum number of plane-waves per node :      2998     2921

 maximum number of plane-waves:     23738
 maximum index in each direction: 
   IXMAX=    7   IYMAX=    4   IZMAX=  163
   IXMIN=   -7   IYMIN=   -5   IZMIN= -163

 WARNING: aliasing errors must be expected set NGX to  30 to avoid them
 WARNING: aliasing errors must be expected set NGY to  20 to avoid them
 WARNING: aliasing errors must be expected set NGZ to 654 to avoid them
 aliasing errors are usually negligible using standard VASP settings
 and one can safely disregard these warnings

 parallel 3D FFT for wavefunctions:
    minimum data exchange during FFTs selected (reduces bandwidth)
 parallel 3D FFT for charge:
    minimum data exchange during FFTs selected (reduces bandwidth)


 total amount of memory used by VASP on root node    66181. kBytes
========================================================================

   base      :      30000. kBytes
   nonl-proj :       9545. kBytes
   fftplans  :       1537. kBytes
   grid      :       4066. kBytes
   one-center:        373. kBytes
   wavefun   :      20660. kBytes
 
 Broyden mixing: mesh for mixing (old mesh)
   NGX = 15   NGY =  9   NGZ =327
  (NGX  = 48   NGY  = 28   NGZ  =980)
  gives a total of  44145 points

 initial charge density was supplied:
 charge density of overlapping atoms calculated
 number of electron     583.0000000 magnetization     120.0000000
 keeping initial charge density in first step


--------------------------------------------------------------------------------------------------------


 Maximum index for augmentation-charges          312 (set IRDMAX)


--------------------------------------------------------------------------------------------------------


 First call to EWALD:  gamma=   0.162
 Maximum number of real-space cells 6x 9x 1
 Maximum number of reciprocal cells 1x 1x21

 FEWALD executed in parallel
    FEWALD:  cpu time    0.00: real time    0.00


----------------------------------------- Iteration    1(   1)  ---------------------------------------


    POTLOK:  cpu time    0.07: real time    0.07
    SETDIJ:  cpu time    0.01: real time    0.01
     EDDAV:  cpu time   12.18: real time   12.20
 BZINTS: Fermi energy: 18.967697;583.000000 electrons
         Band energy:4204.448223;  BLOECHL correction: -0.841584
       DOS:  cpu time    0.01: real time    0.01
    --------------------------------------------
      LOOP:  cpu time   12.28: real time   12.37

 eigenvalue-minimisations  :  6744
 total energy-change (2. order) : 0.7569034E+04  (-0.2143052E+05)
 number of electron     583.0000000 magnetization     120.0000000
 augmentation part      583.0000000 magnetization     120.0000000

 Free energy of the ion-electron system (eV)
  ---------------------------------------------------
  alpha Z        PSCENC =      1567.40908688
  Ewald energy   TEWEN  =   1637118.91621266
  -1/2 Hartree   DENC   =  -1676428.40704817
  -exchange  EXHF       =         0.00000000
  -V(xc)+E(xc)   XCENC  =      1387.16830202
  PAW double counting   =     27858.91048155   -27451.65979283
  entropy T*S    EENTRO =         0.00000000
  eigenvalues    EBANDS =      4204.44822312
  atomic energy  EATOM  =     39312.24856084
  ---------------------------------------------------
  free energy    TOTEN  =      7569.03402607 eV

  energy without entropy =     7569.03402607  energy(sigma->0) =     7569.03402607


--------------------------------------------------------------------------------------------------------




----------------------------------------- Iteration    1(   2)  ---------------------------------------


     EDDAV:  cpu time   12.37: real time   12.38
 BZINTS: Fermi energy:  5.464985;583.000000 electrons
         Band energy:***********;  BLOECHL correction: -0.217102
       DOS:  cpu time    0.01: real time    0.01
    --------------------------------------------
      LOOP:  cpu time   12.38: real time   12.48

 eigenvalue-minimisations  :  6912
 total energy-change (2. order) :-0.7152938E+04  (-0.6465805E+04)
 number of electron     583.0000000 magnetization     120.0000000
 augmentation part      583.0000000 magnetization     120.0000000

 Free energy of the ion-electron system (eV)
  ---------------------------------------------------
  alpha Z        PSCENC =      1567.40908688
  Ewald energy   TEWEN  =   1637118.91621266
  -1/2 Hartree   DENC   =  -1676428.40704817
  -exchange  EXHF       =         0.00000000
  -V(xc)+E(xc)   XCENC  =      1387.16830202
  PAW double counting   =     27858.91048155   -27451.65979283
  entropy T*S    EENTRO =         0.00000000
  eigenvalues    EBANDS =     -2948.48933550
  atomic energy  EATOM  =     39312.24856084
  ---------------------------------------------------
  free energy    TOTEN  =       416.09646745 eV

  energy without entropy =      416.09646745  energy(sigma->0) =      416.09646745


--------------------------------------------------------------------------------------------------------




----------------------------------------- Iteration    1(   3)  ---------------------------------------


     EDDAV:  cpu time   12.57: real time   12.57
 BZINTS: Fermi energy:  2.364887;583.000000 electrons
         Band energy:***********;  BLOECHL correction: -0.144762
       DOS:  cpu time    0.01: real time    0.01
    --------------------------------------------
      LOOP:  cpu time   12.58: real time   12.80

 eigenvalue-minimisations  :  7056
 total energy-change (2. order) :-0.1216336E+04  (-0.1119258E+04)
 number of electron     583.0000000 magnetization     120.0000000
 augmentation part      583.0000000 magnetization     120.0000000

 Free energy of the ion-electron system (eV)
  ---------------------------------------------------
  alpha Z        PSCENC =      1567.40908688
  Ewald energy   TEWEN  =   1637118.91621266
  -1/2 Hartree   DENC   =  -1676428.40704817
  -exchange  EXHF       =         0.00000000
  -V(xc)+E(xc)   XCENC  =      1387.16830202
  PAW double counting   =     27858.91048155   -27451.65979283
  entropy T*S    EENTRO =         0.00000000
  eigenvalues    EBANDS =     -4164.82493488
  atomic energy  EATOM  =     39312.24856084
  ---------------------------------------------------
  free energy    TOTEN  =      -800.23913193 eV

  energy without entropy =     -800.23913193  energy(sigma->0) =     -800.23913193


--------------------------------------------------------------------------------------------------------




----------------------------------------- Iteration    1(   4)  ---------------------------------------


     EDDAV:  cpu time   14.83: real time   14.83
 BZINTS: Fermi energy:  2.133664;583.000000 electrons
         Band energy:***********;  BLOECHL correction: -0.205390
       DOS:  cpu time    0.01: real time    0.01
    --------------------------------------------
      LOOP:  cpu time   14.84: real time   14.98

 eigenvalue-minimisations  :  8728
 total energy-change (2. order) :-0.7805192E+02  (-0.7647830E+02)
 number of electron     583.0000000 magnetization     120.0000000
 augmentation part      583.0000000 magnetization     120.0000000

 Free energy of the ion-electron system (eV)
  ---------------------------------------------------
  alpha Z        PSCENC =      1567.40908688
  Ewald energy   TEWEN  =   1637118.91621266
  -1/2 Hartree   DENC   =  -1676428.40704817
  -exchange  EXHF       =         0.00000000
  -V(xc)+E(xc)   XCENC  =      1387.16830202
  PAW double counting   =     27858.91048155   -27451.65979283
  entropy T*S    EENTRO =         0.00000000
  eigenvalues    EBANDS =     -4242.87685747
  atomic energy  EATOM  =     39312.24856084
  ---------------------------------------------------
  free energy    TOTEN  =      -878.29105452 eV

  energy without entropy =     -878.29105452  energy(sigma->0) =     -878.29105452


--------------------------------------------------------------------------------------------------------




----------------------------------------- Iteration    1(   5)  ---------------------------------------


     EDDAV:  cpu time   15.48: real time   15.50
 BZINTS: Fermi energy:  2.123768;583.000000 electrons
         Band energy:***********;  BLOECHL correction: -0.203708
       DOS:  cpu time    0.01: real time    0.01
    CHARGE:  cpu time    0.23: real time    0.23
    MIXING:  cpu time    0.00: real time    0.00
    --------------------------------------------
      LOOP:  cpu time   15.73: real time   15.85

 eigenvalue-minimisations  :  9232
 total energy-change (2. order) :-0.2297071E+01  (-0.2290116E+01)
 number of electron     583.0000019 magnetization     119.7923737
 augmentation part      163.3919085 magnetization      86.1529360

 Broyden mixing:
  rms(total) = 0.10648E+02    rms(broyden)= 0.10643E+02
  rms(prec ) = 0.10707E+02
  weight for this iteration     100.00

 Free energy of the ion-electron system (eV)
  ---------------------------------------------------
  alpha Z        PSCENC =      1567.40908688
  Ewald energy   TEWEN  =   1637118.91621266
  -1/2 Hartree   DENC   =  -1676428.40704817
  -exchange  EXHF       =         0.00000000
  -V(xc)+E(xc)   XCENC  =      1387.16830202
  PAW double counting   =     27858.91048155   -27451.65979283
  entropy T*S    EENTRO =         0.00000000
  eigenvalues    EBANDS =     -4245.17392823
  atomic energy  EATOM  =     39312.24856084
  ---------------------------------------------------
  free energy    TOTEN  =      -880.58812527 eV

  energy without entropy =     -880.58812527  energy(sigma->0) =     -880.58812527


--------------------------------------------------------------------------------------------------------




----------------------------------------- Iteration    1(   6)  ---------------------------------------


    POTLOK:  cpu time    0.07: real time    0.07
    SETDIJ:  cpu time    0.01: real time    0.01
     EDDAV:  cpu time   16.25: real time   16.26
 BZINTS: Fermi energy: -0.756927;583.000000 electrons
         Band energy:***********;  BLOECHL correction: -0.498741
       DOS:  cpu time    0.01: real time    0.01
    CHARGE:  cpu time    0.23: real time    0.23
    MIXING:  cpu time    0.00: real time    0.00
    --------------------------------------------
      LOOP:  cpu time   16.58: real time   16.81

 eigenvalue-minimisations  :  9832
 total energy-change (2. order) : 0.5342330E+01  (-0.1378548E+03)
 number of electron     583.0000006 magnetization     119.6665072
 augmentation part      203.9932930 magnetization     100.5897767

 Broyden mixing:
  rms(total) = 0.16836E+02    rms(broyden)= 0.16834E+02
  rms(prec ) = 0.19784E+02
  weight for this iteration     100.00

 eigenvalues of (default mixing * dielectric matrix)
  average eigenvalue GAMMA=   0.3629
  0.3629

 Free energy of the ion-electron system (eV)
  ---------------------------------------------------
  alpha Z        PSCENC =      1567.40908688
  Ewald energy   TEWEN  =   1637118.91621266
  -1/2 Hartree   DENC   =  -1676298.48547883
  -exchange  EXHF       =         0.00000000
  -V(xc)+E(xc)   XCENC  =      1464.46685340
  PAW double counting   =     30191.20897234   -29756.90308729
  entropy T*S    EENTRO =         0.00000000
  eigenvalues    EBANDS =     -4474.10691567
  atomic energy  EATOM  =     39312.24856084
  ---------------------------------------------------
  free energy    TOTEN  =      -875.24579568 eV

  energy without entropy =     -875.24579568  energy(sigma->0) =     -875.24579568


--------------------------------------------------------------------------------------------------------




----------------------------------------- Iteration    1(   7)  ---------------------------------------


    POTLOK:  cpu time    0.07: real time    0.07
    SETDIJ:  cpu time    0.01: real time    0.01
     EDDAV:  cpu time   16.80: real time   16.82
 BZINTS: Fermi energy:  6.341651;583.000000 electrons
         Band energy:***********;  BLOECHL correction: -0.082322
       DOS:  cpu time    0.01: real time    0.01
    CHARGE:  cpu time    0.23: real time    0.23
    MIXING:  cpu time    0.00: real time    0.00
    --------------------------------------------
      LOOP:  cpu time   17.13: real time   17.25

 eigenvalue-minimisations  : 10208
 total energy-change (2. order) :-0.9722282E+03  (-0.1273334E+03)
 number of electron     582.9999997 magnetization     119.6011609
 augmentation part      183.7513187 magnetization     102.5197890

 Broyden mixing:
  rms(total) = 0.22451E+02    rms(broyden)= 0.22449E+02
  rms(prec ) = 0.37590E+02
  weight for this iteration     100.00

 eigenvalues of (default mixing * dielectric matrix)
  average eigenvalue GAMMA=   0.2091
  0.3572  0.0611

 Free energy of the ion-electron system (eV)
  ---------------------------------------------------
  alpha Z        PSCENC =      1567.40908688
  Ewald energy   TEWEN  =   1637118.91621266
  -1/2 Hartree   DENC   =  -1678231.09155077
  -exchange  EXHF       =         0.00000000
  -V(xc)+E(xc)   XCENC  =      1431.35149926
  PAW double counting   =     30401.59329388   -30053.00771942
  entropy T*S    EENTRO =         0.00000000
  eigenvalues    EBANDS =     -3394.89337198
  atomic energy  EATOM  =     39312.24856084
  ---------------------------------------------------
  free energy    TOTEN  =     -1847.47398866 eV

  energy without entropy =    -1847.47398866  energy(sigma->0) =    -1847.47398866


--------------------------------------------------------------------------------------------------------




----------------------------------------- Iteration    1(   8)  ---------------------------------------


    POTLOK:  cpu time    0.07: real time    0.07
    SETDIJ:  cpu time    0.01: real time    0.01
     EDDAV:  cpu time   17.13: real time   17.14
 BZINTS: Fermi energy:  1.897189;583.000000 electrons
         Band energy:***********;  BLOECHL correction: -0.076206
       DOS:  cpu time    0.01: real time    0.01
    CHARGE:  cpu time    0.23: real time    0.23
    MIXING:  cpu time    0.00: real time    0.00
    --------------------------------------------
      LOOP:  cpu time   17.46: real time   17.57

 eigenvalue-minimisations  : 10488
 total energy-change (2. order) : 0.1198825E+04  (-0.1181617E+03)
 number of electron     583.0000055 magnetization     119.5437894
 augmentation part      165.9553171 magnetization      91.8501820

 Broyden mixing:
  rms(total) = 0.86322E+01    rms(broyden)= 0.86277E+01
  rms(prec ) = 0.10137E+02
  weight for this iteration     100.00

 eigenvalues of (default mixing * dielectric matrix)
  average eigenvalue GAMMA=   0.2362
  0.4425  0.1331  0.1331

 Free energy of the ion-electron system (eV)
  ---------------------------------------------------
  alpha Z        PSCENC =      1567.40908688
  Ewald energy   TEWEN  =   1637118.91621266
  -1/2 Hartree   DENC   =  -1676950.60676092
  -exchange  EXHF       =         0.00000000
  -V(xc)+E(xc)   XCENC  =      1423.05948032
  PAW double counting   =     30445.77155688   -30122.32910514
  entropy T*S    EENTRO =         0.00000000
  eigenvalues    EBANDS =     -3443.11794006
  atomic energy  EATOM  =     39312.24856084
  ---------------------------------------------------
  free energy    TOTEN  =      -648.64890853 eV

  energy without entropy =     -648.64890853  energy(sigma->0) =     -648.64890853


--------------------------------------------------------------------------------------------------------




----------------------------------------- Iteration    1(   9)  ---------------------------------------


    POTLOK:  cpu time    0.07: real time    0.07
    SETDIJ:  cpu time    0.01: real time    0.01
     EDDAV:  cpu time   16.30: real time   16.30
 BZINTS: Fermi energy:  1.145003;583.000000 electrons
         Band energy:***********;  BLOECHL correction: -0.060951
       DOS:  cpu time    0.01: real time    0.01
    CHARGE:  cpu time    0.23: real time    0.23
    MIXING:  cpu time    0.00: real time    0.00
    --------------------------------------------
      LOOP:  cpu time   16.62: real time   16.73

 eigenvalue-minimisations  :  9880
 total energy-change (2. order) : 0.1583284E+02  (-0.4137430E+02)
 number of electron     583.0000031 magnetization     119.4574433
 augmentation part      164.7291887 magnetization      89.6318991

 Broyden mixing:
  rms(total) = 0.64158E+01    rms(broyden)= 0.64139E+01
  rms(prec ) = 0.69018E+01
  weight for this iteration     100.00

 eigenvalues of (default mixing * dielectric matrix)
  average eigenvalue GAMMA=   0.2538
  0.5823  0.1703  0.1703  0.0926

 Free energy of the ion-electron system (eV)
  ---------------------------------------------------
  alpha Z        PSCENC =      1567.40908688
  Ewald energy   TEWEN  =   1637118.91621266
  -1/2 Hartree   DENC   =  -1676630.81374436
  -exchange  EXHF       =         0.00000000
  -V(xc)+E(xc)   XCENC  =      1425.81248231
  PAW double counting   =     30599.69301504   -30280.73524694
  entropy T*S    EENTRO =         0.00000000
  eigenvalues    EBANDS =     -3745.34643318
  atomic energy  EATOM  =     39312.24856084
  ---------------------------------------------------
  free energy    TOTEN  =      -632.81606676 eV

  energy without entropy =     -632.81606676  energy(sigma->0) =     -632.81606676


--------------------------------------------------------------------------------------------------------




----------------------------------------- Iteration    1(  10)  ---------------------------------------


    POTLOK:  cpu time    0.07: real time    0.07
    SETDIJ:  cpu time    0.01: real time    0.01
     EDDAV:  cpu time   15.75: real time   15.77
 BZINTS: Fermi energy:  0.591300;583.000000 electrons
         Band energy:***********;  BLOECHL correction: -0.080652
       DOS:  cpu time    0.01: real time    0.01
    CHARGE:  cpu time    0.23: real time    0.23
    MIXING:  cpu time    0.00: real time    0.00
    --------------------------------------------
      LOOP:  cpu time   16.08: real time   16.30

 eigenvalue-minimisations  :  9432
 total energy-change (2. order) : 0.1901607E+02  (-0.6667764E+01)
 number of electron     583.0000012 magnetization     119.3888541
 augmentation part      165.5984143 magnetization      90.1167949

 Broyden mixing:
  rms(total) = 0.46939E+01    rms(broyden)= 0.46925E+01
  rms(prec ) = 0.47978E+01
  weight for this iteration     100.00

 eigenvalues of (default mixing * dielectric matrix)
  average eigenvalue GAMMA=   0.2707
  0.6311  0.2508  0.2508  0.0945  0.1264

 Free energy of the ion-electron system (eV)
  ---------------------------------------------------
  alpha Z        PSCENC =      1567.40908688
  Ewald energy   TEWEN  =   1637118.91621266
  -1/2 Hartree   DENC   =  -1676686.35059693
  -exchange  EXHF       =         0.00000000
  -V(xc)+E(xc)   XCENC  =      1433.91817324
  PAW double counting   =     30882.93896870   -30564.57228843
  entropy T*S    EENTRO =         0.00000000
  eigenvalues    EBANDS =     -3678.30811155
  atomic energy  EATOM  =     39312.24856084
  ---------------------------------------------------
  free energy    TOTEN  =      -613.79999460 eV

  energy without entropy =     -613.79999460  energy(sigma->0) =     -613.79999460


--------------------------------------------------------------------------------------------------------




----------------------------------------- Iteration    1(  11)  ---------------------------------------


    POTLOK:  cpu time    0.07: real time    0.07
    SETDIJ:  cpu time    0.01: real time    0.01
     EDDAV:  cpu time   16.28: real time   16.29
 BZINTS: Fermi energy:  0.313985;583.000000 electrons
         Band energy:***********;  BLOECHL correction: -0.051051
       DOS:  cpu time    0.01: real time    0.01
    CHARGE:  cpu time    0.23: real time    0.23
    MIXING:  cpu time    0.00: real time    0.00
    --------------------------------------------
      LOOP:  cpu time   16.61: real time   16.70

 eigenvalue-minimisations  :  9856
 total energy-change (2. order) : 0.6486439E+01  (-0.2275847E+01)
 number of electron     583.0000027 magnetization     119.3351362
 augmentation part      166.6524071 magnetization      89.3100582

 Broyden mixing:
  rms(total) = 0.37278E+01    rms(broyden)= 0.37272E+01
  rms(prec ) = 0.37917E+01
  weight for this iteration     100.00

 eigenvalues of (default mixing * dielectric matrix)
  average eigenvalue GAMMA=   0.2750
  0.6051  0.3271  0.3271  0.0933  0.1487  0.1487

 Free energy of the ion-electron system (eV)
  ---------------------------------------------------
  alpha Z        PSCENC =      1567.40908688
  Ewald energy   TEWEN  =   1637118.91621266
  -1/2 Hartree   DENC   =  -1676655.59096193
  -exchange  EXHF       =         0.00000000
  -V(xc)+E(xc)   XCENC  =      1438.54718576
  PAW double counting   =     31087.24018828   -30767.29183460
  entropy T*S    EENTRO =         0.00000000
  eigenvalues    EBANDS =     -3708.79199348
  atomic energy  EATOM  =     39312.24856084
  ---------------------------------------------------
  free energy    TOTEN  =      -607.31355559 eV

  energy without entropy =     -607.31355559  energy(sigma->0) =     -607.31355559


--------------------------------------------------------------------------------------------------------




----------------------------------------- Iteration    1(  12)  ---------------------------------------


    POTLOK:  cpu time    0.07: real time    0.07
    SETDIJ:  cpu time    0.01: real time    0.01
     EDDAV:  cpu time   15.79: real time   15.80
 BZINTS: Fermi energy:  0.162525;583.000000 electrons
         Band energy:***********;  BLOECHL correction: -0.118641
       DOS:  cpu time    0.01: real time    0.01
    CHARGE:  cpu time    0.23: real time    0.23
    MIXING:  cpu time    0.00: real time    0.00
    --------------------------------------------
      LOOP:  cpu time   16.11: real time   16.21

 eigenvalue-minimisations  :  9480
 total energy-change (2. order) :-0.3218885E+01  (-0.1506332E+01)
 number of electron     583.0000023 magnetization     119.2800449
 augmentation part      167.0781185 magnetization      90.7552211

 Broyden mixing:
  rms(total) = 0.33191E+01    rms(broyden)= 0.33186E+01
  rms(prec ) = 0.34717E+01
  weight for this iteration     100.00

 eigenvalues of (default mixing * dielectric matrix)
  average eigenvalue GAMMA=   0.2829
  0.5935  0.3962  0.3962  0.1855  0.1855  0.0934  0.1301

 Free energy of the ion-electron system (eV)
  ---------------------------------------------------
  alpha Z        PSCENC =      1567.40908688
  Ewald energy   TEWEN  =   1637118.91621266
  -1/2 Hartree   DENC   =  -1676666.48574665
  -exchange  EXHF       =         0.00000000
  -V(xc)+E(xc)   XCENC  =      1440.29710324
  PAW double counting   =     31237.84519776   -30915.48546244
  entropy T*S    EENTRO =         0.00000000
  eigenvalues    EBANDS =     -3705.27739268
  atomic energy  EATOM  =     39312.24856084
  ---------------------------------------------------
  free energy    TOTEN  =      -610.53244039 eV

  energy without entropy =     -610.53244039  energy(sigma->0) =     -610.53244039


--------------------------------------------------------------------------------------------------------




----------------------------------------- Iteration    1(  13)  ---------------------------------------


    POTLOK:  cpu time    0.07: real time    0.07
    SETDIJ:  cpu time    0.01: real time    0.01
     EDDAV:  cpu time   15.69: real time   15.70
 BZINTS: Fermi energy:  0.079998;583.000000 electrons
         Band energy:***********;  BLOECHL correction: -0.094738
       DOS:  cpu time    0.01: real time    0.01
    CHARGE:  cpu time    0.23: real time    0.23
    MIXING:  cpu time    0.00: real time    0.00
    --------------------------------------------
      LOOP:  cpu time   16.01: real time   16.12

 eigenvalue-minimisations  :  9408
 total energy-change (2. order) : 0.1270670E+01  (-0.5862212E+00)
 number of electron     583.0000022 magnetization     119.1975268
 augmentation part      167.7659174 magnetization      90.3173694

 Broyden mixing:
  rms(total) = 0.28532E+01    rms(broyden)= 0.28529E+01
  rms(prec ) = 0.29692E+01
  weight for this iteration     100.00

 eigenvalues of (default mixing * dielectric matrix)
  average eigenvalue GAMMA=   0.3002
  0.5699  0.5011  0.5011  0.2170  0.2170  0.0936  0.1644  0.1373

 Free energy of the ion-electron system (eV)
  ---------------------------------------------------
  alpha Z        PSCENC =      1567.40908688
  Ewald energy   TEWEN  =   1637118.91621266
  -1/2 Hartree   DENC   =  -1676613.82599129
  -exchange  EXHF       =         0.00000000
  -V(xc)+E(xc)   XCENC  =      1442.95079081
  PAW double counting   =     31363.02795634   -31039.09533035
  entropy T*S    EENTRO =         0.00000000
  eigenvalues    EBANDS =     -3760.89305674
  atomic energy  EATOM  =     39312.24856084
  ---------------------------------------------------
  free energy    TOTEN  =      -609.26177084 eV

  energy without entropy =     -609.26177084  energy(sigma->0) =     -609.26177084


--------------------------------------------------------------------------------------------------------




----------------------------------------- Iteration    1(  14)  ---------------------------------------


    POTLOK:  cpu time    0.07: real time    0.07
    SETDIJ:  cpu time    0.01: real time    0.01
     EDDAV:  cpu time   16.09: real time   16.10
 BZINTS: Fermi energy:  0.109550;583.000000 electrons
         Band energy:***********;  BLOECHL correction: -0.103988
       DOS:  cpu time    0.01: real time    0.01
    CHARGE:  cpu time    0.23: real time    0.23
    MIXING:  cpu time    0.00: real time    0.00
    --------------------------------------------
      LOOP:  cpu time   16.41: real time   16.52

 eigenvalue-minimisations  :  9728
 total energy-change (2. order) :-0.2870097E+01  (-0.8921656E+00)
 number of electron     583.0000028 magnetization     119.0366425
 augmentation part      168.1972771 magnetization      91.6686003

 Broyden mixing:
  rms(total) = 0.26189E+01    rms(broyden)= 0.26186E+01
  rms(prec ) = 0.28100E+01
  weight for this iteration     100.00

 eigenvalues of (default mixing * dielectric matrix)
  average eigenvalue GAMMA=   0.3525
  0.7277  0.7277  0.5371  0.2913  0.2913  0.1861  0.1861  0.0935  0.1318

 Free energy of the ion-electron system (eV)
  ---------------------------------------------------
  alpha Z        PSCENC =      1567.40908688
  Ewald energy   TEWEN  =   1637118.91621266
  -1/2 Hartree   DENC   =  -1676595.31086899
  -exchange  EXHF       =         0.00000000
  -V(xc)+E(xc)   XCENC  =      1446.23794106
  PAW double counting   =     31540.52441538   -31213.86674145
  entropy T*S    EENTRO =         0.00000000
  eigenvalues    EBANDS =     -3788.29047412
  atomic energy  EATOM  =     39312.24856084
  ---------------------------------------------------
  free energy    TOTEN  =      -612.13186774 eV

  energy without entropy =     -612.13186774  energy(sigma->0) =     -612.13186774


--------------------------------------------------------------------------------------------------------




----------------------------------------- Iteration    1(  15)  ---------------------------------------


    POTLOK:  cpu time    0.07: real time    0.07
    SETDIJ:  cpu time    0.01: real time    0.01
     EDDAV:  cpu time   15.93: real time   15.94
 BZINTS: Fermi energy:  0.141859;583.000000 electrons
         Band energy:***********;  BLOECHL correction: -0.084754
       DOS:  cpu time    0.01: real time    0.01
    CHARGE:  cpu time    0.23: real time    0.23
    MIXING:  cpu time    0.00: real time    0.00
    --------------------------------------------
      LOOP:  cpu time   16.25: real time   16.48

 eigenvalue-minimisations  :  9584
 total energy-change (2. order) :-0.9946353E+00  (-0.1648702E+01)
 number of electron     583.0000014 magnetization     118.8443701
 augmentation part      170.1665861 magnetization      90.6895435

 Broyden mixing:
  rms(total) = 0.24447E+01    rms(broyden)= 0.24439E+01
  rms(prec ) = 0.26388E+01
  weight for this iteration     100.00

 eigenvalues of (default mixing * dielectric matrix)
  average eigenvalue GAMMA=   0.3818
  0.9475  0.9475  0.4659  0.3349  0.3349  0.2013  0.2013  0.0935  0.1318  0.1590

 Free energy of the ion-electron system (eV)
  ---------------------------------------------------
  alpha Z        PSCENC =      1567.40908688
  Ewald energy   TEWEN  =   1637118.91621266
  -1/2 Hartree   DENC   =  -1676504.43268468
  -exchange  EXHF       =         0.00000000
  -V(xc)+E(xc)   XCENC  =      1453.56487313
  PAW double counting   =     31847.97869204   -31518.23683113
  entropy T*S    EENTRO =         0.00000000
  eigenvalues    EBANDS =     -3890.57441283
  atomic energy  EATOM  =     39312.24856084
  ---------------------------------------------------
  free energy    TOTEN  =      -613.12650307 eV

  energy without entropy =     -613.12650307  energy(sigma->0) =     -613.12650307


--------------------------------------------------------------------------------------------------------




----------------------------------------- Iteration    1(  16)  ---------------------------------------


    POTLOK:  cpu time    0.07: real time    0.07
    SETDIJ:  cpu time    0.01: real time    0.01
     EDDAV:  cpu time   16.18: real time   16.19
 BZINTS: Fermi energy: -0.133576;583.000000 electrons
         Band energy:***********;  BLOECHL correction: -0.059987
       DOS:  cpu time    0.02: real time    0.02
    CHARGE:  cpu time    0.35: real time    0.35
    MIXING:  cpu time    0.00: real time    0.00
    --------------------------------------------
      LOOP:  cpu time   16.63: real time   16.84

 eigenvalue-minimisations  :  9568
 total energy-change (2. order) :-0.1296921E+01  (-0.3253429E+01)
 number of electron     583.0000028 magnetization     118.6931396
 augmentation part      171.4499226 magnetization      92.9129986

 Broyden mixing:
  rms(total) = 0.21388E+01    rms(broyden)= 0.21378E+01
  rms(prec ) = 0.22306E+01
  weight for this iteration     100.00

 eigenvalues of (default mixing * dielectric matrix)
  average eigenvalue GAMMA=   0.4075
  1.1478  1.1478  0.3727  0.3727  0.4065  0.2279  0.2279  0.0935  0.1996  0.1300
  0.1565

 Free energy of the ion-electron system (eV)
  ---------------------------------------------------
  alpha Z        PSCENC =      1567.40908688
  Ewald energy   TEWEN  =   1637118.91621266
  -1/2 Hartree   DENC   =  -1676464.02710654
  -exchange  EXHF       =         0.00000000
  -V(xc)+E(xc)   XCENC  =      1463.98771480
  PAW double counting   =     32212.39225942   -31878.57449314
  entropy T*S    EENTRO =         0.00000000
  eigenvalues    EBANDS =     -3946.77565869
  atomic energy  EATOM  =     39312.24856084
  ---------------------------------------------------
  free energy    TOTEN  =      -614.42342377 eV

  energy without entropy =     -614.42342377  energy(sigma->0) =     -614.42342377


--------------------------------------------------------------------------------------------------------




----------------------------------------- Iteration    1(  17)  ---------------------------------------


    POTLOK:  cpu time    0.11: real time    0.12
    SETDIJ:  cpu time    0.02: real time    0.02
     EDDAV:  cpu time   23.27: real time   23.51
 BZINTS: Fermi energy: -0.202502;583.000000 electrons
         Band energy:***********;  BLOECHL correction: -0.191821
       DOS:  cpu time    0.01: real time    0.01
    CHARGE:  cpu time    0.23: real time    0.23
    MIXING:  cpu time    0.00: real time    0.00
    --------------------------------------------
      LOOP:  cpu time   23.64: real time   23.98

 eigenvalue-minimisations  :  9360
 total energy-change (2. order) :-0.2681492E+01  (-0.2297301E+01)
 number of electron     583.0000016 magnetization     118.5172952
 augmentation part      172.6207686 magnetization      93.6079594

 Broyden mixing:
  rms(total) = 0.19262E+01    rms(broyden)= 0.19253E+01
  rms(prec ) = 0.20037E+01
  weight for this iteration     100.00

 eigenvalues of (default mixing * dielectric matrix)
  average eigenvalue GAMMA=   0.4327
  1.3494  1.3494  0.4211  0.4211  0.3451  0.2768  0.2768  0.1958  0.1958  0.0935
  0.1385  0.1285

 Free energy of the ion-electron system (eV)
  ---------------------------------------------------
  alpha Z        PSCENC =      1567.40908688
  Ewald energy   TEWEN  =   1637118.91621266
  -1/2 Hartree   DENC   =  -1676454.12482569
  -exchange  EXHF       =         0.00000000
  -V(xc)+E(xc)   XCENC  =      1470.92876375
  PAW double counting   =     32471.74976165   -32136.74100042
  entropy T*S    EENTRO =         0.00000000
  eigenvalues    EBANDS =     -3967.49147580
  atomic energy  EATOM  =     39312.24856084
  ---------------------------------------------------
  free energy    TOTEN  =      -617.10491613 eV

  energy without entropy =     -617.10491613  energy(sigma->0) =     -617.10491613


--------------------------------------------------------------------------------------------------------




----------------------------------------- Iteration    1(  18)  ---------------------------------------


    POTLOK:  cpu time    0.07: real time    0.07
    SETDIJ:  cpu time    0.01: real time    0.01
     EDDAV:  cpu time   15.71: real time   15.72
 BZINTS: Fermi energy: -0.184186;583.000000 electrons
         Band energy:***********;  BLOECHL correction: -0.178486
       DOS:  cpu time    0.01: real time    0.01
    CHARGE:  cpu time    0.23: real time    0.23
    MIXING:  cpu time    0.00: real time    0.00
    --------------------------------------------
      LOOP:  cpu time   16.03: real time   16.14

 eigenvalue-minimisations  :  9408
 total energy-change (2. order) :-0.2020415E+01  (-0.4703765E+00)
 number of electron     583.0000022 magnetization     118.4231528
 augmentation part      173.8573436 magnetization      93.9636249

 Broyden mixing:
  rms(total) = 0.21603E+01    rms(broyden)= 0.21598E+01
  rms(prec ) = 0.22262E+01
  weight for this iteration     100.00

 eigenvalues of (default mixing * dielectric matrix)
  average eigenvalue GAMMA=   0.4394
  1.4260  1.4260  0.4977  0.4977  0.3311  0.2985  0.2985  0.2100  0.2100  0.0935
  0.1625  0.1354  0.1255

 Free energy of the ion-electron system (eV)
  ---------------------------------------------------
  alpha Z        PSCENC =      1567.40908688
  Ewald energy   TEWEN  =   1637118.91621266
  -1/2 Hartree   DENC   =  -1676418.33906782
  -exchange  EXHF       =         0.00000000
  -V(xc)+E(xc)   XCENC  =      1478.76955946
  PAW double counting   =     32725.89844664   -32391.09993096
  entropy T*S    EENTRO =         0.00000000
  eigenvalues    EBANDS =     -4012.92819870
  atomic energy  EATOM  =     39312.24856084
  ---------------------------------------------------
  free energy    TOTEN  =      -619.12533099 eV

  energy without entropy =     -619.12533099  energy(sigma->0) =     -619.12533099


--------------------------------------------------------------------------------------------------------




----------------------------------------- Iteration    1(  19)  ---------------------------------------


    POTLOK:  cpu time    0.07: real time    0.07
    SETDIJ:  cpu time    0.01: real time    0.01
     EDDAV:  cpu time   16.38: real time   16.39
 BZINTS: Fermi energy: -0.248658;583.000000 electrons
         Band energy:***********;  BLOECHL correction: -0.141841
       DOS:  cpu time    0.01: real time    0.01
    CHARGE:  cpu time    0.23: real time    0.23
    MIXING:  cpu time    0.00: real time    0.00
    --------------------------------------------
      LOOP:  cpu time   16.71: real time   16.82

 eigenvalue-minimisations  :  9944
 total energy-change (2. order) :-0.2177225E+00  (-0.4459042E+00)
 number of electron     583.0000023 magnetization     118.3419498
 augmentation part      173.5641477 magnetization      94.9546151

 Broyden mixing:
  rms(total) = 0.19514E+01    rms(broyden)= 0.19511E+01
  rms(prec ) = 0.19752E+01
  weight for this iteration     100.00

 eigenvalues of (default mixing * dielectric matrix)
  average eigenvalue GAMMA=   0.4412
  1.4443  1.4443  0.5452  0.5452  0.3228  0.3228  0.3469  0.2332  0.2332  0.1908
  0.1908  0.0935  0.1368  0.1274

 Free energy of the ion-electron system (eV)
  ---------------------------------------------------
  alpha Z        PSCENC =      1567.40908688
  Ewald energy   TEWEN  =   1637118.91621266
  -1/2 Hartree   DENC   =  -1676434.89452230
  -exchange  EXHF       =         0.00000000
  -V(xc)+E(xc)   XCENC  =      1481.46279897
  PAW double counting   =     32798.08666813   -32466.11739538
  entropy T*S    EENTRO =         0.00000000
  eigenvalues    EBANDS =     -3996.45446327
  atomic energy  EATOM  =     39312.24856084
  ---------------------------------------------------
  free energy    TOTEN  =      -619.34305347 eV

  energy without entropy =     -619.34305347  energy(sigma->0) =     -619.34305347


--------------------------------------------------------------------------------------------------------




----------------------------------------- Iteration    1(  20)  ---------------------------------------


    POTLOK:  cpu time    0.07: real time    0.07
    SETDIJ:  cpu time    0.01: real time    0.01
     EDDAV:  cpu time   15.47: real time   15.47
 BZINTS: Fermi energy: -0.205946;583.000000 electrons
         Band energy:***********;  BLOECHL correction: -0.131318
       DOS:  cpu time    0.01: real time    0.01
    CHARGE:  cpu time    0.23: real time    0.23
    MIXING:  cpu time    0.00: real time    0.00
    --------------------------------------------
      LOOP:  cpu time   15.79: real time   15.99

 eigenvalue-minimisations  :  9224
 total energy-change (2. order) :-0.6079172E+00  (-0.1994376E+00)
 number of electron     583.0000023 magnetization     118.3015358
 augmentation part      173.8050665 magnetization      95.0223809

 Broyden mixing:
  rms(total) = 0.20301E+01    rms(broyden)= 0.20300E+01
  rms(prec ) = 0.20668E+01
  weight for this iteration     100.00

 eigenvalues of (default mixing * dielectric matrix)
  average eigenvalue GAMMA=   0.4431
  1.4511  1.4511  0.6183  0.6183  0.3550  0.3550  0.3448  0.2598  0.2598  0.2079
  0.2079  0.0935  0.1642  0.1345  0.1258

 Free energy of the ion-electron system (eV)
  ---------------------------------------------------
  alpha Z        PSCENC =      1567.40908688
  Ewald energy   TEWEN  =   1637118.91621266
  -1/2 Hartree   DENC   =  -1676432.23168480
  -exchange  EXHF       =         0.00000000
  -V(xc)+E(xc)   XCENC  =      1483.22877266
  PAW double counting   =     32861.86221746   -32531.40792996
  entropy T*S    EENTRO =         0.00000000
  eigenvalues    EBANDS =     -3999.97620643
  atomic energy  EATOM  =     39312.24856084
  ---------------------------------------------------
  free energy    TOTEN  =      -619.95097068 eV

  energy without entropy =     -619.95097068  energy(sigma->0) =     -619.95097068


--------------------------------------------------------------------------------------------------------




----------------------------------------- Iteration    1(  21)  ---------------------------------------


    POTLOK:  cpu time    0.07: real time    0.07
    SETDIJ:  cpu time    0.01: real time    0.01
     EDDAV:  cpu time   14.03: real time   14.04
 BZINTS: Fermi energy: -0.214629;583.000000 electrons
         Band energy:***********;  BLOECHL correction: -0.108051
       DOS:  cpu time    0.01: real time    0.01
    CHARGE:  cpu time    0.23: real time    0.23
    MIXING:  cpu time    0.00: real time    0.00
    --------------------------------------------
      LOOP:  cpu time   14.36: real time   14.57

 eigenvalue-minimisations  :  8152
 total energy-change (2. order) : 0.2399656E+00  (-0.2998301E-01)
 number of electron     583.0000022 magnetization     118.2674547
 augmentation part      173.7800238 magnetization      95.2097983

 Broyden mixing:
  rms(total) = 0.19765E+01    rms(broyden)= 0.19765E+01
  rms(prec ) = 0.20063E+01
  weight for this iteration     100.00

 eigenvalues of (default mixing * dielectric matrix)
  average eigenvalue GAMMA=   0.4603
  1.4592  1.4592  0.7128  0.7128  0.4419  0.4419  0.3395  0.3066  0.3066  0.2258
  0.2258  0.0935  0.1888  0.1888  0.1354  0.1265

 Free energy of the ion-electron system (eV)
  ---------------------------------------------------
  alpha Z        PSCENC =      1567.40908688
  Ewald energy   TEWEN  =   1637118.91621266
  -1/2 Hartree   DENC   =  -1676438.73062051
  -exchange  EXHF       =         0.00000000
  -V(xc)+E(xc)   XCENC  =      1483.74390618
  PAW double counting   =     32877.95565443   -32548.49916461
  entropy T*S    EENTRO =         0.00000000
  eigenvalues    EBANDS =     -3992.75464098
  atomic energy  EATOM  =     39312.24856084
  ---------------------------------------------------
  free energy    TOTEN  =      -619.71100511 eV

  energy without entropy =     -619.71100511  energy(sigma->0) =     -619.71100511


--------------------------------------------------------------------------------------------------------




----------------------------------------- Iteration    1(  22)  ---------------------------------------


    POTLOK:  cpu time    0.07: real time    0.07
    SETDIJ:  cpu time    0.01: real time    0.01
     EDDAV:  cpu time   13.78: real time   13.79
 BZINTS: Fermi energy: -0.218207;583.000000 electrons
         Band energy:***********;  BLOECHL correction: -0.098566
       DOS:  cpu time    0.01: real time    0.01
    CHARGE:  cpu time    0.23: real time    0.23
    MIXING:  cpu time    0.00: real time    0.00
    --------------------------------------------
      LOOP:  cpu time   14.11: real time   14.22

 eigenvalue-minimisations  :  7984
 total energy-change (2. order) : 0.2109291E+00  (-0.1994082E-01)
 number of electron     583.0000023 magnetization     118.2459676
 augmentation part      173.7704441 magnetization      95.1964252

 Broyden mixing:
  rms(total) = 0.19748E+01    rms(broyden)= 0.19748E+01
  rms(prec ) = 0.20044E+01
  weight for this iteration     100.00

 eigenvalues of (default mixing * dielectric matrix)
  average eigenvalue GAMMA=   0.4641
  1.4522  1.4522  0.7995  0.7995  0.4858  0.4858  0.3279  0.3279  0.3448  0.2397
  0.2397  0.0935  0.2035  0.2035  0.1733  0.1351  0.1264

 Free energy of the ion-electron system (eV)
  ---------------------------------------------------
  alpha Z        PSCENC =      1567.40908688
  Ewald energy   TEWEN  =   1637118.91621266
  -1/2 Hartree   DENC   =  -1676440.01262884
  -exchange  EXHF       =         0.00000000
  -V(xc)+E(xc)   XCENC  =      1484.06843221
  PAW double counting   =     32885.65959556   -32556.67154240
  entropy T*S    EENTRO =         0.00000000
  eigenvalues    EBANDS =     -3991.11779294
  atomic energy  EATOM  =     39312.24856084
  ---------------------------------------------------
  free energy    TOTEN  =      -619.50007603 eV

  energy without entropy =     -619.50007603  energy(sigma->0) =     -619.50007603


--------------------------------------------------------------------------------------------------------




----------------------------------------- Iteration    1(  23)  ---------------------------------------


    POTLOK:  cpu time    0.07: real time    0.07
    SETDIJ:  cpu time    0.01: real time    0.01
     EDDAV:  cpu time   14.88: real time   14.89
 BZINTS: Fermi energy: -0.232849;583.000000 electrons
         Band energy:***********;  BLOECHL correction: -0.116187
       DOS:  cpu time    0.01: real time    0.01
    CHARGE:  cpu time    0.23: real time    0.23
    MIXING:  cpu time    0.00: real time    0.00
    --------------------------------------------
      LOOP:  cpu time   15.21: real time   15.45

 eigenvalue-minimisations  :  8784
 total energy-change (2. order) : 0.3894048E-01  (-0.1484610E-01)
 number of electron     583.0000023 magnetization     118.1501431
 augmentation part      173.8053018 magnetization      95.1098869

 Broyden mixing:
  rms(total) = 0.19731E+01    rms(broyden)= 0.19730E+01
  rms(prec ) = 0.20132E+01
  weight for this iteration     100.00

 eigenvalues of (default mixing * dielectric matrix)
  average eigenvalue GAMMA=   0.5010
  1.4704  1.4704  1.0570  1.0570  0.5517  0.5517  0.3725  0.3725  0.3322  0.2892
  0.2892  0.2298  0.2298  0.0935  0.1944  0.1944  0.1353  0.1264

 Free energy of the ion-electron system (eV)
  ---------------------------------------------------
  alpha Z        PSCENC =      1567.40908688
  Ewald energy   TEWEN  =   1637118.91621266
  -1/2 Hartree   DENC   =  -1676439.71926478
  -exchange  EXHF       =         0.00000000
  -V(xc)+E(xc)   XCENC  =      1484.23149818
  PAW double counting   =     32888.89833366   -32559.88594823
  entropy T*S    EENTRO =         0.00000000
  eigenvalues    EBANDS =     -3991.55961476
  atomic energy  EATOM  =     39312.24856084
  ---------------------------------------------------
  free energy    TOTEN  =      -619.46113555 eV

  energy without entropy =     -619.46113555  energy(sigma->0) =     -619.46113555


--------------------------------------------------------------------------------------------------------




----------------------------------------- Iteration    1(  24)  ---------------------------------------


    POTLOK:  cpu time    0.07: real time    0.07
    SETDIJ:  cpu time    0.01: real time    0.01
     EDDAV:  cpu time   14.99: real time   15.00
 BZINTS: Fermi energy: -0.209924;583.000000 electrons
         Band energy:***********;  BLOECHL correction: -0.118203
       DOS:  cpu time    0.01: real time    0.01
    CHARGE:  cpu time    0.23: real time    0.23
    MIXING:  cpu time    0.00: real time    0.00
    --------------------------------------------
      LOOP:  cpu time   15.31: real time   15.53

 eigenvalue-minimisations  :  8880
 total energy-change (2. order) : 0.2998835E+00  (-0.7933888E-01)
 number of electron     583.0000020 magnetization     118.1199932
 augmentation part      173.8217985 magnetization      94.9302695

 Broyden mixing:
  rms(total) = 0.19784E+01    rms(broyden)= 0.19783E+01
  rms(prec ) = 0.20009E+01
  weight for this iteration     100.00

 eigenvalues of (default mixing * dielectric matrix)
  average eigenvalue GAMMA=   0.5082
  1.4627  1.4627  1.2308  1.2308  0.5854  0.5854  0.3921  0.3921  0.3333  0.3074
  0.3074  0.2311  0.2311  0.0935  0.1937  0.1937  0.1264  0.1352  0.1610

 Free energy of the ion-electron system (eV)
  ---------------------------------------------------
  alpha Z        PSCENC =      1567.40908688
  Ewald energy   TEWEN  =   1637118.91621266
  -1/2 Hartree   DENC   =  -1676438.55006591
  -exchange  EXHF       =         0.00000000
  -V(xc)+E(xc)   XCENC  =      1485.41534154
  PAW double counting   =     32913.49852485   -32585.14665671
  entropy T*S    EENTRO =         0.00000000
  eigenvalues    EBANDS =     -3992.95225625
  atomic energy  EATOM  =     39312.24856084
  ---------------------------------------------------
  free energy    TOTEN  =      -619.16125209 eV

  energy without entropy =     -619.16125209  energy(sigma->0) =     -619.16125209


--------------------------------------------------------------------------------------------------------




----------------------------------------- Iteration    1(  25)  ---------------------------------------


    POTLOK:  cpu time    0.07: real time    0.07
    SETDIJ:  cpu time    0.01: real time    0.01
     EDDAV:  cpu time   14.55: real time   14.55
 BZINTS: Fermi energy: -0.191154;583.000000 electrons
         Band energy:***********;  BLOECHL correction: -0.118735
       DOS:  cpu time    0.01: real time    0.01
    CHARGE:  cpu time    0.23: real time    0.23
    MIXING:  cpu time    0.00: real time    0.00
    --------------------------------------------
      LOOP:  cpu time   14.87: real time   15.00

 eigenvalue-minimisations  :  8560
 total energy-change (2. order) :-0.5624241E-01  (-0.1348429E-01)
 number of electron     583.0000019 magnetization     118.1226596
 augmentation part      173.8710309 magnetization      94.7400262

 Broyden mixing:
[...]
   -.115E+02 -.665E-02 0.487E+03   0.117E+02 0.732E-02 -.484E+03   -.832E-01 -.869E-04 0.122E+01   -.160E+00 0.114E-03 -.488E+01
   -.168E+02 -.145E+00 -.160E+04   0.164E+02 0.134E+00 0.161E+04   0.443E+00 0.872E-02 0.138E+01   -.337E-01 -.860E-04 -.126E+02
   -.110E+02 0.428E-01 -.277E+04   0.109E+02 -.356E-01 0.280E+04   0.170E+00 -.973E-02 -.162E+01   -.445E-01 -.482E-03 -.214E+02
   -.991E+00 0.174E-01 -.395E+04   0.932E+00 -.168E-01 0.397E+04   0.561E-01 -.316E-03 0.601E-01   -.542E-01 0.285E-03 -.209E+02
   -.164E+01 -.153E-02 -.516E+04   0.155E+01 0.132E-02 0.518E+04   -.442E-01 -.368E-04 -.942E-01   0.209E+00 0.302E-03 -.145E+02
   -.419E+01 -.668E-03 -.636E+04   0.411E+01 0.661E-03 0.638E+04   0.211E-01 -.577E-04 -.491E-01   0.997E-01 0.123E-03 -.137E+02
   -.564E+01 0.250E-01 -.754E+04   0.548E+01 -.227E-01 0.755E+04   0.697E-01 0.108E-02 -.193E+00   -.443E-01 0.186E-02 -.145E+02
   0.269E+01 0.250E-01 -.334E+04   -.284E+01 -.225E-01 0.337E+04   0.474E-01 0.182E-03 -.267E+00   0.167E+00 -.516E-03 -.223E+02
   0.168E+01 0.197E-02 -.455E+04   -.158E+01 -.182E-02 0.457E+04   0.295E-02 -.389E-04 -.861E-01   -.112E+00 -.120E-03 -.176E+02
   0.266E+01 -.246E-02 -.576E+04   -.257E+01 0.237E-02 0.578E+04   0.189E-01 0.177E-03 -.926E-01   -.197E+00 -.191E-03 -.131E+02
   0.607E+01 -.466E-02 -.695E+04   -.587E+01 0.488E-02 0.697E+04   -.711E-01 0.430E-03 -.789E-01   -.124E+00 0.102E-03 -.150E+02
   -.208E+02 0.479E+00 -.801E+04   0.194E+02 -.447E+00 0.802E+04   0.389E+00 0.304E-01 -.104E+01   0.137E+01 -.203E-01 -.133E+02
   0.229E+02 -.258E+00 -.118E+04   -.281E+02 0.342E+00 0.118E+04   0.460E+01 -.817E-01 0.104E+02   0.760E+00 0.923E-02 -.872E+01
   0.284E+02 -.718E-01 0.601E+03   -.321E+02 0.108E+00 -.607E+03   0.392E+01 -.352E-01 0.795E+01   -.932E-01 -.190E-03 -.180E+01
   0.112E+03 0.851E-03 0.665E+04   -.135E+03 -.410E-02 -.668E+04   0.238E+02 0.349E-02 0.200E+02   -.647E-01 0.929E-04 0.771E+01
   0.277E+02 -.548E-01 0.238E+04   -.311E+02 0.848E-01 -.240E+04   0.342E+01 -.295E-01 0.743E+01   -.545E-01 0.329E-03 0.125E+02
   -.434E+02 0.936E-02 0.501E+04   0.515E+02 -.164E-01 -.503E+04   -.798E+01 0.722E-02 -.159E+01   -.784E-01 0.148E-03 0.224E+02
   0.413E+02 -.281E-01 0.410E+04   -.492E+02 0.417E-01 -.412E+04   0.777E+01 -.132E-01 0.200E+01   0.388E-01 0.667E-04 0.222E+02
   -.329E+02 0.342E-01 0.326E+04   0.369E+02 -.546E-01 -.327E+04   -.410E+01 0.207E-01 -.568E+01   0.150E-01 -.178E-03 0.198E+02
   0.424E+02 -.520E-02 0.582E+04   -.503E+02 0.735E-02 -.585E+04   0.780E+01 -.191E-02 0.363E+01   -.929E-02 -.624E-04 0.218E+02
   -.229E+02 0.556E-01 0.147E+04   0.237E+02 -.903E-01 -.147E+04   -.821E+00 0.351E-01 -.854E+01   -.862E-01 -.350E-03 0.524E+01
   -.261E+02 0.770E-01 -.308E+03   0.273E+02 -.122E+00 0.320E+03   -.118E+01 0.443E-01 -.677E+01   0.639E-01 0.796E-03 -.486E+01
   -.258E+02 0.723E-01 -.215E+04   0.294E+02 -.142E+00 0.218E+04   -.349E+01 0.691E-01 -.159E+02   -.912E-01 -.174E-03 -.171E+02
   0.491E+01 -.101E+00 -.210E+04   -.123E+02 0.207E+00 0.211E+04   0.721E+01 -.103E+00 0.546E+01   0.184E+00 -.422E-02 -.170E+02
   -.262E+02 -.728E-01 -.293E+03   0.301E+02 0.113E+00 0.290E+03   -.396E+01 -.400E-01 0.861E+01   -.617E-01 -.457E-03 -.494E+01
   -.261E+02 -.633E-01 0.150E+04   0.290E+02 0.965E-01 -.151E+04   -.298E+01 -.333E-01 0.833E+01   0.138E+00 0.633E-03 0.466E+01
   0.360E+02 0.356E-02 0.585E+04   -.416E+02 -.524E-02 -.587E+04   0.563E+01 0.214E-02 -.379E+01   -.369E-01 -.486E-03 0.213E+02
   -.339E+02 -.395E-01 0.324E+04   0.395E+02 0.611E-01 -.327E+04   -.538E+01 -.208E-01 0.506E+01   -.722E-01 -.182E-03 0.193E+02
   0.404E+02 0.210E-01 0.414E+04   -.473E+02 -.340E-01 -.416E+04   0.691E+01 0.135E-01 -.275E+01   0.736E-02 -.186E-03 0.223E+02
   -.436E+02 -.159E-01 0.495E+04   0.520E+02 0.231E-01 -.498E+04   -.850E+01 -.720E-02 0.142E+01   0.753E-01 0.273E-03 0.224E+02
   0.263E+02 0.466E-01 0.236E+04   -.281E+02 -.768E-01 -.237E+04   0.186E+01 0.308E-01 -.783E+01   -.106E-01 -.603E-03 0.133E+02
   -.118E+03 0.411E-03 0.667E+04   0.139E+03 0.362E-03 -.671E+04   -.209E+02 -.853E-03 0.278E+02   0.345E+00 0.222E-03 0.964E+01
   0.240E+02 0.666E-01 0.585E+03   -.250E+02 -.106E+00 -.576E+03   0.986E+00 0.395E-01 -.753E+01   -.546E-01 0.643E-04 -.114E+01
   0.201E+02 0.133E+00 -.121E+04   -.184E+02 -.218E+00 0.122E+04   -.114E+01 0.862E-01 -.802E+01   -.544E+00 -.295E-02 -.880E+01
   -.160E+03 0.354E+00 -.163E+04   0.184E+03 -.446E+00 0.164E+04   -.237E+02 0.863E-01 -.132E+01   -.952E+00 -.606E-02 -.136E+02
   -.180E+03 0.627E-01 0.163E+03   0.216E+03 -.928E-01 -.153E+03   -.353E+02 0.308E-01 -.554E+01   -.140E+00 -.225E-03 -.495E+01
   -.180E+03 0.499E-01 0.194E+04   0.215E+03 -.729E-01 -.194E+04   -.352E+02 0.220E-01 -.665E+01   -.103E+00 0.126E-02 0.867E+01
   0.185E+03 -.894E-02 0.538E+04   -.220E+03 0.119E-01 -.540E+04   0.351E+02 -.233E-02 0.524E+01   -.150E+00 -.337E-03 0.227E+02
   -.184E+03 0.212E-01 0.371E+04   0.220E+03 -.332E-01 -.373E+04   -.352E+02 0.120E-01 -.576E+01   -.156E+00 0.460E-03 0.221E+02
   0.183E+03 -.295E-01 0.366E+04   -.218E+03 0.415E-01 -.369E+04   0.352E+02 -.111E-01 0.570E+01   0.256E+00 -.525E-03 0.218E+02
   -.184E+03 0.359E-02 0.544E+04   0.219E+03 -.674E-02 -.546E+04   -.351E+02 0.285E-02 -.517E+01   0.862E-01 0.439E-03 0.228E+02
   0.179E+03 -.513E-01 0.192E+04   -.214E+03 0.732E-01 -.193E+04   0.351E+02 -.206E-01 0.722E+01   0.623E-01 -.908E-03 0.808E+01
   0.180E+03 -.738E-01 0.132E+03   -.216E+03 0.104E+00 -.135E+03   0.351E+02 -.301E-01 0.754E+01   0.769E-01 0.213E-03 -.501E+01
   0.158E+03 -.192E+00 -.164E+04   -.181E+03 0.258E+00 0.165E+04   0.214E+02 -.713E-01 0.950E+01   0.869E+00 0.337E-02 -.140E+02
   0.178E+03 0.716E-01 -.739E+03   -.213E+03 -.963E-01 0.751E+03   0.351E+02 0.230E-01 -.616E+01   0.208E+00 0.453E-03 -.572E+01
   0.179E+03 0.601E-01 0.105E+04   -.214E+03 -.882E-01 -.105E+04   0.353E+02 0.279E-01 -.680E+01   0.927E-01 0.465E-03 0.265E+01
   -.183E+03 -.287E-02 0.625E+04   0.215E+03 0.388E-02 -.628E+04   -.321E+02 -.134E-02 0.839E+01   0.418E-01 0.324E-03 0.196E+02
   0.182E+03 0.287E-01 0.283E+04   -.217E+03 -.432E-01 -.284E+04   0.351E+02 0.149E-01 -.646E+01   0.176E+00 0.124E-03 0.172E+02
   -.185E+03 -.181E-01 0.452E+04   0.220E+03 0.248E-01 -.454E+04   -.353E+02 -.660E-02 0.501E+01   0.860E-01 0.104E-03 0.225E+02
   0.185E+03 0.121E-01 0.459E+04   -.221E+03 -.191E-01 -.460E+04   0.353E+02 0.735E-02 -.496E+01   -.105E+00 -.596E-04 0.226E+02
   -.180E+03 -.402E-01 0.279E+04   0.216E+03 0.546E-01 -.282E+04   -.351E+02 -.141E-01 0.678E+01   -.188E+00 -.220E-05 0.167E+02
   0.181E+03 0.283E-02 0.628E+04   -.215E+03 -.455E-02 -.629E+04   0.340E+02 0.172E-02 -.534E+01   -.582E-01 0.543E-04 0.189E+02
   -.179E+03 -.564E-01 0.103E+04   0.214E+03 0.829E-01 -.104E+04   -.351E+02 -.253E-01 0.744E+01   -.115E+00 -.797E-03 0.237E+01
   -.177E+03 -.113E+00 -.760E+03   0.212E+03 0.142E+00 0.759E+03   -.349E+02 -.233E-01 0.810E+01   -.180E+00 -.451E-03 -.608E+01
   -.134E+02 0.530E-01 -.313E+04   0.123E+02 -.769E-01 0.316E+04   0.123E+01 0.284E-01 -.110E+02   -.250E-01 -.323E-02 -.190E+02
   -.139E+02 0.434E-01 -.418E+04   0.113E+02 -.667E-01 0.420E+04   0.260E+01 0.211E-01 -.126E+02   0.522E-01 0.217E-02 -.136E+02
   -.151E+02 0.384E-01 -.521E+04   0.129E+02 -.529E-01 0.523E+04   0.211E+01 0.157E-01 -.122E+02   0.571E-01 -.142E-02 -.112E+02
   -.205E+02 0.234E-01 -.621E+04   0.226E+02 -.317E-01 0.623E+04   -.206E+01 0.868E-02 -.949E+01   -.643E-01 -.182E-02 -.129E+02
   -.144E+03 -.409E+00 -.711E+04   0.166E+03 0.348E+00 0.715E+04   -.236E+02 0.207E-01 -.258E+02   0.110E+01 0.148E-01 -.828E+01
   0.148E+02 0.755E-01 -.262E+04   -.165E+02 -.185E+00 0.265E+04   0.128E+01 0.109E+00 -.117E+02   0.316E+00 0.298E-02 -.193E+02
   0.137E+02 0.464E-01 -.366E+04   -.112E+02 -.658E-01 0.369E+04   -.282E+01 0.197E-01 -.125E+02   0.267E+00 0.682E-04 -.169E+02
   0.141E+02 0.419E-01 -.470E+04   -.112E+02 -.627E-01 0.472E+04   -.267E+01 0.195E-01 -.127E+02   -.143E+00 0.106E-02 -.114E+02
   0.167E+02 0.265E-01 -.571E+04   -.160E+02 -.384E-01 0.573E+04   -.638E+00 0.123E-01 -.108E+02   -.942E-02 -.594E-03 -.123E+02
   0.264E+02 0.292E-01 -.669E+04   -.331E+02 -.315E-01 0.671E+04   0.648E+01 0.130E-02 -.622E+01   0.156E+00 -.549E-02 -.121E+02
   -.130E+02 -.542E-01 -.310E+04   0.859E+01 0.836E-01 0.311E+04   0.430E+01 -.314E-01 0.131E+02   0.702E-01 0.117E-02 -.188E+02
   -.141E+02 -.428E-01 -.415E+04   0.113E+02 0.668E-01 0.415E+04   0.297E+01 -.214E-01 0.120E+02   -.918E-01 -.248E-02 -.135E+02
   -.177E+02 -.303E-01 -.519E+04   0.159E+02 0.449E-01 0.519E+04   0.188E+01 -.163E-01 0.111E+02   -.978E-01 0.115E-02 -.112E+02
   -.246E+02 -.111E-01 -.622E+04   0.248E+02 0.266E-01 0.622E+04   -.235E+00 -.150E-01 0.875E+01   0.348E-01 -.186E-02 -.128E+02
   0.122E+03 0.159E-01 -.712E+04   -.139E+03 0.947E-01 0.715E+04   0.170E+02 -.146E+00 -.246E+02   -.547E+00 0.360E-01 -.696E+01
   0.124E+02 -.628E-01 -.258E+04   -.965E+01 0.133E+00 0.259E+04   -.236E+01 -.715E-01 0.120E+02   -.355E+00 0.106E-02 -.192E+02
   0.126E+02 -.454E-01 -.362E+04   -.889E+01 0.694E-01 0.363E+04   -.360E+01 -.232E-01 0.130E+02   -.105E+00 -.853E-03 -.168E+02
   0.159E+02 -.400E-01 -.467E+04   -.137E+02 0.596E-01 0.467E+04   -.247E+01 -.208E-01 0.117E+02   0.194E+00 0.771E-03 -.114E+02
   0.206E+02 -.231E-01 -.571E+04   -.195E+02 0.339E-01 0.571E+04   -.100E+01 -.135E-01 0.103E+02   0.674E-02 0.163E-02 -.123E+02
   0.390E+02 -.488E-01 -.673E+04   -.435E+02 0.482E-01 0.674E+04   0.476E+01 -.312E-01 0.127E+01   -.112E+00 0.115E-01 -.125E+02
   -.492E+01 -.129E-01 -.299E+03   0.533E+01 0.114E-01 0.301E+03   -.354E+00 0.722E-03 0.441E+00   -.149E-01 0.176E-04 -.249E+01
 -----------------------------------------------------------------------------------------------
   -.196E+02 0.617E-01 -.103E+03   0.739E-12 0.343E-12 0.177E-10   0.174E+02 -.905E-01 -.843E+00   0.219E+01 0.356E-01 0.104E+03
 
 
 POSITION                                       TOTAL-FORCE (eV/Angst)
 -----------------------------------------------------------------------------------
      0.29202      0.73957     61.95764        -0.108901      0.003406     -0.355352
      0.24258      0.72985     52.60752        -0.019670      0.000300     -0.026746
      4.29230      2.14855     21.70415        -0.166356      0.000053      0.017123
      0.23048      0.72160     43.24961         0.000825     -0.000010     -0.072220
      4.41583      2.14953     31.26533        -0.008131      0.000248     -0.021562
      0.15447      0.71710     33.81013         0.003754      0.000078      0.106896
      4.34845      2.15336     40.73184         0.011830      0.000259      0.206347
      0.15654      0.71566     24.28537         0.009703     -0.000027     -0.100690
      4.31037      2.16066     50.10660         0.057806      0.000243      0.165009
      4.35649      2.17056     59.45933        -0.108131     -0.000116     -0.392618
      2.05492      0.74872     66.73312        -0.113939     -0.001197      0.060023
      2.09332      0.73479     57.28583         0.067502      0.000069     -0.344546
      2.05161      0.72538     47.93285        -0.023074      0.000086      0.016039
      2.43167      2.14880     26.50550        -0.026266      0.000027      0.103155
      2.08294      0.71897     38.53851         0.012251      0.000142      0.224375
      2.41991      2.15101     36.00614         0.000489      0.000164      0.296204
      2.15006      0.71603     29.05941         0.007437     -0.000205     -0.045348
      2.50282      2.15658     45.42633        -0.059918      0.000213      0.275209
      2.52119      2.16535     54.78097         0.025714      0.000614     -0.282208
      2.57423      2.17718     64.12568        -0.010450     -0.002122      0.067400
      4.39148      2.18567     69.02379        -0.019858     -0.003073     -0.072125
      4.41730      2.19030     73.39513        -0.057129      0.000428     -0.135706
      4.42145      2.19355     77.76948         0.075843     -0.000015      0.135592
      4.42658      2.19617     82.17313         0.036610     -0.000016      0.060818
      4.44555      2.19780     86.62399        -0.140979      0.005158      0.139280
      2.13887      0.75561     71.21198         0.068456      0.002061     -0.129532
      2.15296      0.75896     75.57915        -0.009474     -0.000085      0.002545
      2.16237      0.76201     79.96723        -0.085229     -0.000176      0.134397
      2.16459      0.76411     84.39415         0.012919      0.000680     -0.008848
      2.16548      0.76586     88.87523         0.408180      0.042016     -0.764607
      1.75430      0.74241     63.23003         0.183992      0.011385      0.119113
      1.67550      0.73189     53.88946         0.063469      0.000359      0.077426
      2.88078      2.14833     20.59794         0.193607      0.000258     -0.016719
      1.65927      0.72321     44.53416        -0.008710      0.000720     -0.090089
      3.09497      2.14910     29.86881         0.032913      0.000231     -0.010228
      1.49050      0.71783     35.19538        -0.101400      0.000413     -0.128963
      2.96254      2.15219     39.41778        -0.087007      0.000142     -0.110123
      1.51013      0.71576     25.67518        -0.032737      0.000094     -0.049299
      2.86962      2.15875     48.86304        -0.061766     -0.000004     -0.024802
      2.92733      2.16831     58.20023         0.096903      0.000286      0.162882
      2.89211      2.18247     67.63793         0.019832     -0.000897      0.015235
      0.52631      0.75111     67.82264         0.007477     -0.000492      0.001330
      0.66256      0.73705     58.56476        -0.117259      0.000035      0.155982
      0.60760      0.72725     49.20236         0.009077      0.000548     -0.044861
      3.78188      2.14868     25.14194         0.011165     -0.000097     -0.011841
      0.69538      0.72009     39.87399         0.096245      0.000558     -0.130779
      3.75723      2.15023     34.63747         0.054717      0.000257     -0.100546
      0.83216      0.71643     30.46195        -0.008208      0.000164     -0.012485
      3.92873      2.15492     44.16243         0.059058     -0.000102     -0.032581
      0.58448      0.71552     20.80912        -0.133312      0.000067      0.177154
      3.94896      2.16329     53.52645        -0.007407      0.000259      0.062594
      4.02485      2.17357     62.91465         0.015754     -0.001896      0.085743
      3.38191      0.74766     65.25489        -0.064388     -0.011397     -0.244983
      3.32025      0.73276     55.80280        -0.015109      0.000529      0.147075
      3.29331      0.72392     46.45900         0.032897      0.000154     -0.057504
      1.29403      2.14897     28.09276        -0.007178      0.000194     -0.021870
      3.25873      0.71817     37.00034         0.022599      0.000305     -0.163310
      1.25070      2.15177     37.56425        -0.030269      0.000301     -0.153409
      3.28350      0.71583     27.47954         0.012012      0.000073     -0.016528
      1.25975      2.15804     46.91937        -0.006417      0.000266     -0.030803
      1.29040      2.16728     56.28022        -0.024426      0.000645      0.128206
      1.35071      2.18059     65.61651         0.030685     -0.001340     -0.051246
      3.56576      0.73797     60.49025         0.076782     -0.001275      0.216333
      3.52725      0.72808     51.14121        -0.010811      0.000147     -0.000910
      0.97484      2.14864     23.29850         0.092301     -0.000080     -0.027328
      3.54027      0.72055     41.74852        -0.020608      0.000424     -0.047979
      1.01184      2.14998     32.85067         0.035201      0.000210     -0.041993
      3.55517      0.71663     32.23069        -0.012267      0.000232     -0.048632
      1.03325      2.15434     42.24352         0.021168      0.000257     -0.011705
      3.49235      0.71556     22.77159        -0.013513     -0.000025      0.001843
      1.03209      2.16247     51.59175        -0.021507      0.000206     -0.006228
      1.07963      2.17178     60.93798        -0.011574      0.004542      0.166049
      2.91098      2.18888     72.18354         0.058013      0.001136      0.093047
      2.90537      2.19221     76.57034        -0.001710     -0.000126     -0.030157
      2.92792      2.19523     80.95053        -0.020708     -0.000215     -0.034244
      2.98746      2.19726     85.32462        -0.013217     -0.001476      0.005249
      2.94805      2.19952     89.82428         0.008910     -0.025677      0.107575
      3.62938      0.75352     69.95970        -0.032707      0.002930      0.064684
      3.67325      0.75755     74.38706        -0.053277      0.000341      0.046953
      3.66906      0.76080     78.76055         0.027259     -0.000262     -0.060836
      3.64084      0.76333     83.13827         0.009961     -0.000249      0.028461
      3.56125      0.76498     87.50174        -0.113384     -0.006519      0.133368
      0.61932      0.75693     72.38017        -0.025631     -0.000854      0.092592
      0.64113      0.76029     76.77329         0.011553      0.000065     -0.007357
      0.66812      0.76299     81.19471         0.013623     -0.000567     -0.061936
      0.72980      0.76476     85.68312        -0.007160     -0.001473     -0.016856
      1.10920      0.78042     90.36425        -0.248647      0.000593      0.310183
      1.40154      2.18805     70.17733         0.008337     -0.000562      0.060247
      1.40890      2.19167     74.57179         0.022326     -0.000140      0.086890
      1.39810      2.19476     78.97859        -0.030565     -0.000523     -0.060889
      1.36837      2.19697     83.42698         0.030540     -0.001066     -0.010498
      1.22546      2.19964     88.00882         0.103101     -0.020408      0.131672
      4.24747      2.18132     66.28679         0.039586     -0.000811      0.034326
 -----------------------------------------------------------------------------------
    total drift:                                0.025302      0.006874      0.203011


--------------------------------------------------------------------------------------------------------



  FREE ENERGIE OF THE ION-ELECTRON SYSTEM (eV)
  ---------------------------------------------------
  free  energy   TOTEN  =      -644.27199691 eV

  energy  without entropy=     -644.27199691  energy(sigma->0) =     -644.27199691
 


--------------------------------------------------------------------------------------------------------


    POTLOK:  cpu time    0.08: real time    0.08


--------------------------------------------------------------------------------------------------------


     LOOP+:  cpu time  957.56: real time  966.99
    4ORBIT:  cpu time    0.00: real time    0.00
 BZINTS: Fermi energy:  0.445038;583.000000 electrons
         Band energy:***********;  BLOECHL correction: -0.084911

 total amount of memory used by VASP on root node    66181. kBytes
========================================================================

   base      :      30000. kBytes
   nonl-proj :       9545. kBytes
   fftplans  :       1537. kBytes
   grid      :       4066. kBytes
   one-center:        373. kBytes
   wavefun   :      20660. kBytes
 
  
  
 General timing and accounting informations for this job:
 ========================================================
  
                  Total CPU time used (sec):      964.066
                            User time (sec):      962.723
                          System time (sec):        1.344
                         Elapsed time (sec):      974.623
  
                   Maximum memory used (kb):      169640.
                   Average memory used (kb):           0.
  
                          Minor page faults:        19376
                          Major page faults:            0
                 Voluntary context switches:        18400
