 vasp.5.3.3 18Dez12 (build May 12 2016 12:04:25) complex                        
  
 executed on             LinuxIFC date 2019.03.14  12:56:09
 running on   80 total cores
 distrk:  each k-point on   80 cores,    1 groups
 distr:  one band on NCORES_PER_BAND=  10 cores,    8 groups


--------------------------------------------------------------------------------------------------------


 INCAR:
 POTCAR:   PAW_PBE Mn 06Sep2000                   
 POTCAR:   PAW_PBE O_s 07Sep2000                  
 POTCAR:    PAW_PBE Li 17Jan2003                  
 POTCAR:   PAW_PBE Mn 06Sep2000                   
  local pseudopotential read in
  partial core-charges read in
  atomic valenz-charges read in
  non local Contribution for L=           2  read in
    real space projection operators read in
  non local Contribution for L=           2  read in
    real space projection operators read in
  non local Contribution for L=           0  read in
    real space projection operators read in
  non local Contribution for L=           0  read in
    real space projection operators read in
  non local Contribution for L=           1  read in
    real space projection operators read in
  non local Contribution for L=           1  read in
    real space projection operators read in
    PAW grid and wavefunctions read in
 
   number of l-projection  operators is LMAX  =           6
   number of lm-projection operators is LMMAX =          18
 
 POTCAR:   PAW_PBE O_s 07Sep2000                  
  local pseudopotential read in
  atomic valenz-charges read in
  non local Contribution for L=           0  read in
    real space projection operators read in
  non local Contribution for L=           0  read in
    real space projection operators read in
  non local Contribution for L=           1  read in
    real space projection operators read in
  non local Contribution for L=           1  read in
    real space projection operators read in
    PAW grid and wavefunctions read in
 
   number of l-projection  operators is LMAX  =           4
   number of lm-projection operators is LMMAX =           8
 
 POTCAR:    PAW_PBE Li 17Jan2003                  
  local pseudopotential read in
  partial core-charges read in
  atomic valenz-charges read in
  non local Contribution for L=           0  read in
    real space projection operators read in
  non local Contribution for L=           0  read in
    real space projection operators read in
  non local Contribution for L=           1  read in
    real space projection operators read in
    PAW grid and wavefunctions read in
 
   number of l-projection  operators is LMAX  =           3
   number of lm-projection operators is LMMAX =           5
 

 ----------------------------------------------------------------------------- 
|                                                                             |
|  ADVICE TO THIS USER RUNNING 'VASP/VAMP'   (HEAR YOUR MASTER'S VOICE ...):  |
|                                                                             |
|      You have a (more or less) 'large supercell' and for larger cells       |
|      it might be more efficient to use real space projection operators      |
|      So try LREAL= Auto  in the INCAR   file.                               |
|      Mind: If you want to do a very accurate calculations keep the          |
|      reciprocal projection scheme          (i.e. LREAL=.FALSE.)             |
|                                                                             |
 ----------------------------------------------------------------------------- 

 PAW_PBE Mn 06Sep2000                   :
 energy of atom  1       EATOM= -416.8732
 kinetic energy error for atom=    0.0088 (will be added to EATOM!!)
 PAW_PBE O_s 07Sep2000                  :
 energy of atom  2       EATOM= -432.2909
 kinetic energy error for atom=    0.0164 (will be added to EATOM!!)
  PAW_PBE Li 17Jan2003                  :
 energy of atom  3       EATOM=   -5.3001
 kinetic energy error for atom=    0.0000 (will be added to EATOM!!)
 
 
 POSCAR: (Li2 Mn15 O30)2  (P1) ~ CONTCAR (VASP)  
  positions in direct lattice
  velocities in cartesian coordinates
 exchange correlation table for  LEXCH =        8
   RHO(1)=    0.500       N(1)  =     2000
   RHO(2)=  100.500       N(2)  =     4000
 


--------------------------------------------------------------------------------------------------------


 ion  position               nearest neighbor table
   1  0.066  0.259  0.605-  52 1.91  52 1.91  63 1.93  31 1.94  72 1.95  72 1.95  10 2.95  10 2.95

   2  0.058  0.255  0.470-  51 1.91  51 1.91  64 1.94  32 1.94  71 1.95  71 1.95   9 2.95   9 2.95

   3  0.968  0.757  0.024-  50 1.92  50 1.92  33 1.94  65 1.95  70 1.95  70 1.95   8 2.96   8 2.96

   4  0.053  0.253  0.334-  49 1.92  49 1.92  34 1.94  66 1.94  69 1.95  69 1.95   7 2.95   7 2.95

   5  0.974  0.753  0.161-  48 1.92  48 1.92  35 1.94  67 1.94  68 1.95  68 1.95   6 2.96   6 2.96

   6  0.036  0.253  0.198-  47 1.92  47 1.92  36 1.94  68 1.95  67 1.95  67 1.95   5 2.96   5 2.96

   7  0.960  0.752  0.298-  46 1.92  46 1.92  69 1.94  37 1.94  66 1.95  66 1.95   4 2.95   4 2.95

   8  0.036  0.256  0.061-  45 1.92  45 1.92  38 1.94  70 1.94  65 1.95  65 1.95   3 2.96   3 2.96

   9  0.953  0.755  0.433-  44 1.91  44 1.91  39 1.93  71 1.94  64 1.95  64 1.95   2 2.95   2 2.95

  10  0.963  0.758  0.568-  43 1.91  43 1.91  40 1.93  72 1.94  63 1.95  63 1.95   1 2.95   1 2.95

  11  0.466  0.261  0.672-  41 1.91  41 1.91  53 1.93  42 1.94  62 1.95  62 1.95  20 2.95  20 2.95

  12  0.464  0.257  0.537-  40 1.91  40 1.92  43 1.93  54 1.93  61 1.95  61 1.95  19 2.95  19 2.95

  13  0.453  0.254  0.402-  39 1.92  39 1.92  44 1.94  55 1.94  60 1.95  60 1.95  18 2.95  18 2.95

  14  0.534  0.755  0.092-  38 1.92  38 1.92  45 1.94  56 1.95  59 1.95  59 1.95  17 2.96  17 2.97

  15  0.460  0.252  0.266-  37 1.92  37 1.92  46 1.93  57 1.95  58 1.95  58 1.95  16 2.96  16 2.96

  16  0.535  0.752  0.229-  36 1.92  36 1.92  58 1.94  47 1.94  57 1.95  57 1.95  15 2.96  15 2.96

  17  0.475  0.254  0.129-  35 1.92  35 1.92  48 1.94  56 1.95  59 1.95  56 1.95  14 2.96  14 2.97

  18  0.552  0.753  0.365-  34 1.92  34 1.92  49 1.94  60 1.94  55 1.95  55 1.95  13 2.95  13 2.95

  19  0.558  0.756  0.501-  32 1.91  32 1.91  51 1.93  61 1.94  54 1.95  54 1.95  12 2.95  12 2.95

  20  0.567  0.760  0.636-  31 1.91  31 1.91  52 1.93  62 1.94  53 1.95  53 1.95  11 2.95  11 2.95

  21  0.964  0.761  0.703-  42 1.92  77 1.92  77 1.92  42 1.92  41 1.93  86 1.95
  22  0.960  0.762  0.766-  82 1.92  82 1.92  78 1.93  78 1.93  73 1.94  87 1.96
  23  0.969  0.763  0.832-  79 1.95  79 1.95  83 1.95  83 1.95  88 2.06  74 2.06  91 2.75  91 2.75
                            91 2.75  91 2.75
  24  0.976  0.761  0.898-  80 1.92  80 1.92  89 1.93  84 1.94  84 1.94  75 1.96
  25  0.971  0.759  0.961-  81 1.92  81 1.92  85 1.93  85 1.93  90 1.95  76 1.95
  26  0.463  0.262  0.734-  86 1.92  86 1.92  73 1.93  73 1.93  77 1.94  82 1.95
  27  0.459  0.262  0.797-  87 1.90  87 1.90  78 1.93  74 2.00  74 2.00  83 2.05  91 2.42
  28  0.477  0.262  0.867-  75 1.90  75 1.90  84 1.94  88 2.01  88 2.01  79 2.06  91 2.42
  29  0.473  0.260  0.929-  76 1.92  76 1.92  89 1.93  89 1.93  85 1.95  80 1.96
  30  0.469  0.258  0.992-  90 1.92  90 1.92  33 1.92  33 1.92  50 1.94  81 1.96
  31  0.389  0.259  0.623-  20 1.91  20 1.91   1 1.94
  32  0.381  0.256  0.487-  19 1.91  19 1.91   2 1.94
  33  0.643  0.758  0.006-  30 1.92  30 1.92   3 1.94
  34  0.374  0.253  0.352-  18 1.92  18 1.92   4 1.94
  35  0.676  0.754  0.141-  17 1.92  17 1.92   5 1.94
  36  0.339  0.252  0.217-  16 1.92  16 1.92   6 1.94
  37  0.647  0.752  0.279-  15 1.92  15 1.92   7 1.94
  38  0.336  0.255  0.080-  14 1.92  14 1.92   8 1.94
  39  0.628  0.754  0.416-  13 1.92  13 1.92   9 1.93
  40  0.642  0.757  0.551-  12 1.91  12 1.92  10 1.93
  41  0.641  0.761  0.686-  11 1.91  11 1.91  21 1.93
  42  0.131  0.261  0.689-  21 1.92  21 1.92  11 1.94
  43  0.142  0.258  0.555-  10 1.91  10 1.91  12 1.93
  44  0.128  0.254  0.420-   9 1.91   9 1.91  13 1.94
  45  0.836  0.756  0.073-   8 1.92   8 1.92  14 1.94
  46  0.146  0.252  0.285-   7 1.92   7 1.92  15 1.93
  47  0.839  0.752  0.210-   6 1.92   6 1.92  16 1.94
  48  0.175  0.253  0.149-   5 1.92   5 1.92  17 1.94
  49  0.874  0.753  0.348-   4 1.92   4 1.92  18 1.94
  50  0.155  0.257  0.011-   3 1.92   3 1.92  30 1.94
  51  0.882  0.755  0.483-   2 1.91   2 1.91  19 1.93
  52  0.891  0.759  0.618-   1 1.91   1 1.91  20 1.93
  53  0.733  0.260  0.651-  11 1.93  20 1.95  20 1.95
  54  0.727  0.256  0.516-  12 1.93  19 1.95  19 1.95
  55  0.719  0.253  0.380-  13 1.94  18 1.95  18 1.95
  56  0.293  0.754  0.115-  14 1.95  17 1.95  17 1.95
  57  0.712  0.252  0.244-  15 1.95  16 1.95  16 1.95
  58  0.285  0.752  0.252-  16 1.94  15 1.95  15 1.95
  59  0.716  0.255  0.106-  14 1.95  14 1.95  17 1.95
  60  0.287  0.754  0.387-  18 1.94  13 1.95  13 1.95
  61  0.295  0.757  0.523-  19 1.94  12 1.95  12 1.95
  62  0.300  0.760  0.657-  20 1.94  11 1.95  11 1.95
  63  0.798  0.258  0.583-   1 1.93  10 1.95  10 1.95
  64  0.788  0.255  0.448-   2 1.94   9 1.95   9 1.95
  65  0.215  0.756  0.046-   3 1.95   8 1.95   8 1.95
  66  0.790  0.252  0.312-   4 1.94   7 1.95   7 1.95
  67  0.217  0.753  0.184-   5 1.94   6 1.95   6 1.95
  68  0.793  0.253  0.175-   5 1.95   5 1.95   6 1.95
  69  0.222  0.753  0.320-   7 1.94   4 1.95   4 1.95
  70  0.791  0.257  0.038-   8 1.94   3 1.95   3 1.95
  71  0.222  0.755  0.455-   9 1.94   2 1.95   2 1.95
  72  0.232  0.758  0.590-  10 1.94   1 1.95   1 1.95
  73  0.626  0.762  0.749-  26 1.93  26 1.93  22 1.94
  74  0.621  0.763  0.813-  27 2.00  27 2.00  23 2.06  91 2.08  91 2.08
  75  0.645  0.762  0.880-  28 1.90  28 1.90  24 1.96
  76  0.639  0.760  0.944-  29 1.92  29 1.92  25 1.95
  77  0.800  0.261  0.718-  21 1.92  21 1.92  26 1.94
  78  0.799  0.262  0.780-  27 1.93  22 1.93  22 1.93
  79  0.801  0.262  0.847-  91 1.85  23 1.95  23 1.95  28 2.06
  80  0.808  0.261  0.912-  24 1.92  24 1.92  29 1.96
  81  0.804  0.259  0.975-  25 1.92  25 1.92  30 1.96
  82  0.128  0.262  0.752-  22 1.92  22 1.92  26 1.95
  83  0.137  0.263  0.817-  91 1.85  23 1.95  23 1.95  27 2.05
  84  0.138  0.261  0.883-  28 1.94  24 1.94  24 1.94
  85  0.139  0.260  0.947-  25 1.93  25 1.93  29 1.95
  86  0.300  0.762  0.720-  26 1.92  26 1.92  21 1.95
  87  0.292  0.762  0.783-  27 1.90  27 1.90  22 1.96
  88  0.316  0.762  0.850-  28 2.01  28 2.01  23 2.06  91 2.07  91 2.08
  89  0.310  0.760  0.915-  29 1.93  29 1.93  24 1.93
  90  0.301  0.758  0.978-  30 1.92  30 1.92  25 1.95
  91  0.469  0.263  0.832-  79 1.85  83 1.85  88 2.07  74 2.08  88 2.08  74 2.08  27 2.42  28 2.42
                            23 2.75  23 2.75  23 2.75  23 2.75
 
  LATTYP: Found a triclinic cell.
 ALAT       =     2.9379692979
 B/A-ratio  =     1.8699631449
 C/A-ratio  =    23.4289455485
 COS(alpha) =     0.0244561875
 COS(beta)  =     0.0426665822
 COS(gamma) =     0.5347687165
  
  Lattice vectors:
  
 A1 = (  -0.0000018318,  -2.9379692978,   0.0000187856)
 A2 = (  -4.6423301387,  -2.9379599521,  -0.0060719908)
 A3 = (  -0.0433222041,  -2.9373308536, -68.7708081845)


Analysis of symmetry for initial positions (statically):
=====================================================================
 Subroutine PRICEL returns:
 Original cell was already a primitive cell.
 

 Routine SETGRP: Setting up the symmetry group for a 
 triclinic supercell.


 Subroutine GETGRP returns: Found  1 space group operations
 (whereof  1 operations were pure point group operations)
 out of a pool of  2 trial point group operations.


The static configuration has the point symmetry C_1 .


Analysis of symmetry for dynamics (positions and initial velocities):
=====================================================================
 Subroutine PRICEL returns:
 Original cell was already a primitive cell.
 

 Routine SETGRP: Setting up the symmetry group for a 
 triclinic supercell.


 Subroutine GETGRP returns: Found  1 space group operations
 (whereof  1 operations were pure point group operations)
 out of a pool of  2 trial point group operations.


The dynamic configuration has the point symmetry C_1 .


Analysis of magnetic symmetry:
=====================================================================

 Subroutine MAGSYM returns: Found  1 space group operations
 (whereof  1 operations were pure point group operations)
 out of a pool of  1 trial space group operations
 (whereof  1 operations were pure point group operations)
 and found also     1 'primitive' translations


The magnetic configuration has the point symmetry C_1 .


 irot  :   1
 --------------------------------------------------------------------
 isymop:   1   0   0
           0   1   0
           0   0   1

 gtrans:     0.0000000     0.0000000     0.0000000

 ptrans:     0.0000000     0.0000000     0.0000000
 rotmap:
 (   1->   1)  (   2->   2)  (   3->   3)  (   4->   4)  (   5->   5) 
 (   6->   6)  (   7->   7)  (   8->   8)  (   9->   9)  (  10->  10) 
 (  11->  11)  (  12->  12)  (  13->  13)  (  14->  14)  (  15->  15) 
 (  16->  16)  (  17->  17)  (  18->  18)  (  19->  19)  (  20->  20) 
 (  21->  21)  (  22->  22)  (  23->  23)  (  24->  24)  (  25->  25) 
 (  26->  26)  (  27->  27)  (  28->  28)  (  29->  29)  (  30->  30) 
 (  31->  31)  (  32->  32)  (  33->  33)  (  34->  34)  (  35->  35) 
 (  36->  36)  (  37->  37)  (  38->  38)  (  39->  39)  (  40->  40) 
 (  41->  41)  (  42->  42)  (  43->  43)  (  44->  44)  (  45->  45) 
 (  46->  46)  (  47->  47)  (  48->  48)  (  49->  49)  (  50->  50) 
 (  51->  51)  (  52->  52)  (  53->  53)  (  54->  54)  (  55->  55) 
 (  56->  56)  (  57->  57)  (  58->  58)  (  59->  59)  (  60->  60) 
 (  61->  61)  (  62->  62)  (  63->  63)  (  64->  64)  (  65->  65) 
 (  66->  66)  (  67->  67)  (  68->  68)  (  69->  69)  (  70->  70) 
 (  71->  71)  (  72->  72)  (  73->  73)  (  74->  74)  (  75->  75) 
 (  76->  76)  (  77->  77)  (  78->  78)  (  79->  79)  (  80->  80) 
 (  81->  81)  (  82->  82)  (  83->  83)  (  84->  84)  (  85->  85) 
 (  86->  86)  (  87->  87)  (  88->  88)  (  89->  89)  (  90->  90) 
 (  91->  91) 
 
 
 KPOINTS: Automatic mesh                          

Automatic generation of k-mesh.
Space group operators:
 irot       det(A)        alpha          n_x          n_y          n_z        tau_x        tau_y        tau_z
    1     1.000000     0.000000     1.000000     0.000000     0.000000     0.000000     0.000000     0.000000
 
 Subroutine IBZKPT returns following result:
 ===========================================
 
 Found      4 irreducible k-points:
 
 Following reciprocal coordinates:
            Coordinates               Weight
  0.000000  0.000000  0.000000      1.000000
  0.500000 -0.000000  0.000000      1.000000
  0.000000  0.333333  0.000000      2.000000
  0.500000  0.333333  0.000000      2.000000
 
 Following cartesian coordinates:
            Coordinates               Weight
  0.000000  0.000000  0.000000      1.000000
  0.107705 -0.000000 -0.000068      1.000000
  0.000000  0.113457  0.000001      2.000000
  0.107705  0.113457 -0.000067      2.000000
 


--------------------------------------------------------------------------------------------------------




 Dimension of arrays:
   k-points           NKPTS =      4   k-points in BZ     NKDIM =      4   number of bands    NBANDS=    408
   number of dos      NEDOS =    301   number of ions     NIONS =     91
   non local maximal  LDIM  =      6   non local SUM 2l+1 LMDIM =     18
   total plane-waves  NPLWV = 112896
   max r-space proj   IRMAX =      1   max aug-charges    IRDMAX=   4624
   dimension x,y,z NGX =    24 NGY =   14 NGZ =  336
   dimension x,y,z NGXF=    48 NGYF=   28 NGZF=  672
   support grid    NGXF=    48 NGYF=   28 NGZF=  672
   ions per type =              30  60   1
 NGX,Y,Z   is equivalent  to a cutoff of   8.59,  7.92,  8.12 a.u.
 NGXF,Y,Z  is equivalent  to a cutoff of  17.19, 15.84, 16.24 a.u.


 I would recommend the setting:
   dimension x,y,z NGX =    23 NGY =   14 NGZ =  336
 SYSTEM =  unknown system                          
 POSCAR =  (Li2 Mn15 O30)2  (P1) ~ CONTCAR (VASP)  

 Startparameter for this run:
   NWRITE =      1    write-flag & timer
   PREC   = normal    normal or accurate (medium, high low for compatibility)
   ISTART =      0    job   : 0-new  1-cont  2-samecut
   ICHARG =      2    charge: 1-file 2-atom 10-const
   ISPIN  =      2    spin polarized calculation?
   LNONCOLLINEAR =      F non collinear calculations
   LSORBIT =      F    spin-orbit coupling
   INIWAV =      1    electr: 0-lowe 1-rand  2-diag
   LASPH  =      F    aspherical Exc in radial PAW
   METAGGA=      F    non-selfconsistent MetaGGA calc.

 Electronic Relaxation 1
   ENCUT  =  400.0 eV  29.40 Ry    5.42 a.u.   7.57  4.79112.15*2*pi/ulx,y,z
   ENINI  =  400.0     initial cutoff
   ENAUG  =  500.7 eV  augmentation charge cutoff
   NELM   =     60;   NELMIN=  2; NELMDL= -5     # of ELM steps 
   EDIFF  = 0.1E-03   stopping-criterion for ELM
   LREAL  =      F    real-space projection
   NLSPLINE    = F    spline interpolate recip. space projectors
   LCOMPAT=      F    compatible to vasp.4.4
   GGA_COMPAT  = T    GGA compatible to vasp.4.4-vasp.4.6
   LMAXPAW     = -100 max onsite density
   LMAXMIX     =    4 max onsite mixed and CHGCAR
   VOSKOWN=      1    Vosko Wilk Nusair interpolation
   ROPT   =    0.00000   0.00000   0.00000
 Ionic relaxation
   EDIFFG = 0.1E-02   stopping-criterion for IOM
   NSW    =    151    number of steps for IOM
   NBLOCK =      1;   KBLOCK =    151    inner block; outer block 
   IBRION =      2    ionic relax: 0-MD 1-quasi-New 2-CG
   NFREE  =      1    steps in history (QN), initial steepest desc. (CG)
   ISIF   =      3    stress and relaxation
   IWAVPR =     11    prediction:  0-non 1-charg 2-wave 3-comb
   ISYM   =      2    0-nonsym 1-usesym 2-fastsym
   LCORR  =      T    Harris-Foulkes like correction to forces

   POTIM  = 0.5000    time-step for ionic-motion
   TEIN   =    0.0    initial temperature
   TEBEG  =    0.0;   TEEND  =   0.0 temperature during run
   SMASS  =  -3.00    Nose mass-parameter (am)
   estimated Nose-frequenzy (Omega)   =  0.10E-29 period in steps =****** mass=  -0.493E-27a.u.
   SCALEE = 1.0000    scale energy and forces
   NPACO  =    256;   APACO  = 16.0  distance and # of slots for P.C.
   PSTRESS=    0.0 pullay stress

  Mass of Ions in am
   POMASS =  54.94 16.00  7.01
  Ionic Valenz
   ZVAL   =   7.00  6.00  1.00
  Atomic Wigner-Seitz radii
   RWIGS  =  -1.00 -1.00 -1.00
  virtual crystal weights 
   VCA    =   1.00  1.00  1.00
   NELECT =     571.0000    total number of electrons
   NUPDOWN=      -1.0000    fix difference up-down

 DOS related values:
   EMIN   =  10.00;   EMAX   =-10.00  energy-range for DOS
   EFERMI =   0.00
   ISMEAR =     1;   SIGMA  =   0.20  broadening in eV -4-tet -1-fermi 0-gaus

 Electronic relaxation 2 (details)
   IALGO  =     38    algorithm
   LDIAG  =      T    sub-space diagonalisation (order eigenvalues)
   LSUBROT=      T    optimize rotation matrix (better conditioning)
   TURBO    =      0    0=normal 1=particle mesh
   IRESTART =      0    0=no restart 2=restart with 2 vectors
   NREBOOT  =      0    no. of reboots
   NMIN     =      0    reboot dimension
   EREF     =   0.00    reference energy to select bands
   IMIX   =      4    mixing-type and parameters
     AMIX     =   0.40;   BMIX     =  1.00
     AMIX_MAG =   1.60;   BMIX_MAG =  1.00
     AMIN     =   0.01
     WC   =   100.;   INIMIX=   1;  MIXPRE=   1;  MAXMIX= -45

 Intra band minimization:
   WEIMIN = 0.0010     energy-eigenvalue tresh-hold
   EBREAK =  0.61E-07  absolut break condition
   DEPER  =   0.30     relativ break condition  

   TIME   =   0.40     timestep for ELM

  volume/ion in A,a.u.               =      10.31        69.56
  Fermi-wavevector in a.u.,A,eV,Ry     =   1.387473  2.621944 26.192321  1.925081
  Thomas-Fermi vector in A             =   2.511691
 
 Write flags
   LWAVE  =      F    write WAVECAR
   LCHARG =      F    write CHGCAR
   LVTOT  =      F    write LOCPOT, total local potential
   LVHAR  =      F    write LOCPOT, Hartree potential only
   LELF   =      F    write electronic localiz. function (ELF)
   LORBIT =      0    0 simple, 1 ext, 2 COOP (PROOUT)


 Dipole corrections
   LMONO  =      F    monopole corrections only (constant potential shift)
   LDIPOL =      F    correct potential (dipole corrections)
   IDIPOL =      0    1-x, 2-y, 3-z, 4-all directions 
   EPSILON=  1.0000000 bulk dielectric constant

 LDA+U is selected, type is set to LDAUTYPE =  2
   angular momentum for each species LDAUL =     2   -1    0
   U (eV)           for each species LDAUU =   3.9  0.0  1.0
   J (eV)           for each species LDAUJ =   0.0  0.0  0.0
 Exchange correlation treatment:
   GGA     =    --    GGA type
   LEXCH   =     8    internal setting for exchange type
   VOSKOWN=      1    Vosko Wilk Nusair interpolation
   LHFCALC =     F    Hartree Fock is set to
   LHFONE  =     F    Hartree Fock one center treatment
   AEXX    =    0.0000 exact exchange contribution

 Linear response parameters
   LEPSILON=     F    determine dielectric tensor
   LRPA    =     F    only Hartree local field effects (RPA)
   LNABLA  =     F    use nabla operator in PAW spheres
   LVEL    =     F    velocity operator in full k-point grid
   LINTERFAST=   F  fast interpolation
   KINTER  =     0    interpolate to denser k-point grid
   CSHIFT  =0.1000    complex shift for real part using Kramers Kronig
   OMEGAMAX=  -1.0    maximum frequency
   DEG_THRESHOLD= 0.2000000E-02 threshold for treating states as degnerate
   RTIME   =    0.100 relaxation time in fs

 Orbital magnetization related:
   ORBITALMAG=     F  switch on orbital magnetization
   LCHIMAG   =     F  perturbation theory with respect to B field
   DQ        =  0.001000  dq finite difference perturbation B field



--------------------------------------------------------------------------------------------------------


 conjugate gradient relaxation of ions
 charge density and potential will be updated during run
 spin polarized calculation
 Variant of blocked Davidson
 Davidson routine will perform the subspace rotation
 perform sub-space diagonalisation
    after iterative eigenvector-optimisation
 modified Broyden-mixing scheme, WC =      100.0
 initial mixing is a Kerker type mixing with AMIX =  0.4000 and BMIX =      1.0000
 Hartree-type preconditioning will be used
 using additional bands          122
 reciprocal scheme for non local part
 use partial core corrections
 calculate Harris-corrections to forces 
   (improved forces if not selfconsistent)
 use gradient corrections 
 use of overlap-Matrix (Vanderbilt PP)
 Methfessel and Paxton  Order N= 1 SIGMA  =   0.20


--------------------------------------------------------------------------------------------------------


  energy-cutoff  :      400.00
  volume of cell :      937.97
      direct lattice vectors                 reciprocal lattice vectors
     4.642328307 -0.000009346  0.006090776     0.215409329 -0.000000135 -0.000135691
     0.000001832  2.937969298 -0.000018786     0.000000681  0.340371154  0.000003159
     0.043320372 -0.000638444 68.770826970    -0.000019078  0.000000093  0.014541062

  length of vectors
     4.642332303  2.937969298 68.770840617     0.215409372  0.340371154  0.014541074


 
 k-points in units of 2pi/SCALE and weight: Automatic mesh                          
   0.00000000  0.00000000  0.00000000       0.167
   0.10770466 -0.00000007 -0.00006785       0.167
   0.00000023  0.11345705  0.00000105       0.333
   0.10770489  0.11345698 -0.00006679       0.333
 
 k-points in reciprocal lattice and weights: Automatic mesh                          
   0.00000000  0.00000000  0.00000000       0.167
   0.50000000 -0.00000000  0.00000000       0.167
   0.00000000  0.33333333  0.00000000       0.333
   0.50000000  0.33333333  0.00000000       0.333
 
 position of ions in fractional coordinates (direct lattice) 
   0.06625087  0.25864663  0.60486715
   0.05780589  0.25516788  0.46964515
   0.96757524  0.75707430  0.02359748
   0.05293213  0.25274638  0.33437360
   0.97441646  0.75299856  0.16083323
   0.03617912  0.25255144  0.19800344
   0.96049490  0.75241028  0.29767992
   0.03604796  0.25595832  0.06071588
   0.95283601  0.75456553  0.43312417
   0.96342413  0.75788166  0.56837481
   0.46557660  0.26050229  0.67230840
   0.46409351  0.25687600  0.53737381
   0.45309057  0.25381987  0.40209949
   0.53433477  0.75471742  0.09213988
   0.46032003  0.25220251  0.26640845
   0.53465879  0.75225252  0.22940782
   0.47466889  0.25385257  0.12937930
   0.55209254  0.75329036  0.36549974
   0.55845264  0.75604615  0.50066137
   0.56714625  0.75969440  0.63578789
   0.96351030  0.76127191  0.70330660
   0.96038512  0.76216934  0.76558271
   0.96874503  0.76263648  0.83176544
   0.97641704  0.76118624  0.89816466
   0.97135727  0.75942950  0.96078221
   0.46280319  0.26180762  0.73443783
   0.45887202  0.26245222  0.79659626
   0.47740898  0.26190693  0.86702940
   0.47319783  0.26036789  0.92944120
   0.46904694  0.25832340  0.99221055
   0.38940381  0.25944489  0.62261709
   0.38075082  0.25582861  0.48747758
   0.64340196  0.75807301  0.00585593
   0.37380913  0.25315095  0.35230104
   0.67554604  0.75364562  0.14111145
   0.33946142  0.25227574  0.21728466
   0.64699652  0.75220469  0.27908172
   0.33632607  0.25491737  0.08021344
   0.62829940  0.75393409  0.41551255
   0.64169173  0.75703752  0.55058791
   0.64095440  0.76061132  0.68557734
   0.13141078  0.26109855  0.68924133
   0.14197437  0.25764197  0.55522453
   0.12779534  0.25438312  0.41974171
   0.83581027  0.75567164  0.07255705
   0.14612687  0.25232953  0.28491061
   0.83916303  0.75246073  0.21004383
   0.17481380  0.25311959  0.14898370
   0.87388310  0.75281243  0.34755652
   0.15486735  0.25727740  0.01093677
   0.88164477  0.75530207  0.48297567
   0.89069289  0.75880965  0.61823738
   0.73297325  0.25979730  0.65072047
   0.72715320  0.25614914  0.51551795
   0.71916741  0.25336619  0.38035087
   0.29266770  0.75394971  0.11531395
   0.71184301  0.25220510  0.24371121
   0.28459266  0.75217757  0.25204378
   0.71607078  0.25450149  0.10610572
   0.28667701  0.75367657  0.38724867
   0.29512251  0.75664706  0.52261808
   0.29987981  0.76029968  0.65746073
   0.79781779  0.25797967  0.58339692
   0.78838850  0.25463989  0.44816977
   0.21525437  0.75611963  0.04641228
   0.79038759  0.25245442  0.31241041
   0.21704142  0.75259526  0.18385143
   0.79290849  0.25285206  0.17490315
   0.22177151  0.75264812  0.31961080
   0.79053501  0.25676431  0.03791655
   0.22247928  0.75500937  0.45464711
   0.23187103  0.75843630  0.58998809
   0.62568699  0.76184210  0.74885174
   0.62148249  0.76250313  0.81308467
   0.64512624  0.76170367  0.88042342
   0.63864380  0.76016862  0.94353142
   0.79960736  0.26133953  0.71758450
   0.79889545  0.26221179  0.78030507
   0.80059386  0.26246399  0.84650029
   0.80771463  0.26097884  0.91211679
   0.80353740  0.25918151  0.97485088
   0.12845964  0.26206630  0.75158653
   0.13662948  0.26255789  0.81699536
   0.13767983  0.26129128  0.88338331
   0.13871083  0.25955677  0.94655042
   0.30004742  0.76168161  0.72021686
   0.29154064  0.76234660  0.78317194
   0.31559628  0.76215483  0.85046014
   0.30971525  0.76048870  0.91499254
   0.30115413  0.75847406  0.97823187
   0.46858421  0.26322167  0.83178794
 
 position of ions in cartesian coordinates  (Angst):
   0.33376185  0.75950907 41.59761280
   0.28869961  0.74937500 32.29823254
   4.49282557  2.22423694  1.62869748
   0.26021399  0.74234714 22.99546659
   4.53052983  2.21217486 11.06655533
   0.17653340  0.74186161 13.61707597
   4.47182965  2.21035926 20.47753055
   0.16997716  0.75195860  4.17569620
   4.44214205  2.21660493 29.79209668
   4.49715473  2.22626117 39.09345925
   2.19048458  0.76491414 46.23803531
   2.17775416  0.75434637 36.95846309
   2.12081475  0.74545405 27.65546947
   2.48455035  2.21727278  6.33977607
   2.14849808  0.74078886 18.32392873
   2.49200104  2.20994335 15.77980804
   2.20917404  0.74572402  8.90040794
   2.57882979  2.21290543 25.13906791
   2.61421070  2.22091551 34.43428386
   2.66042303  2.23154762 43.72709899
   4.50340005  2.23613548 48.37283041
   4.49158975  2.23873236 52.65559112
   4.53326624  2.24006248 57.20708358
   4.57175868  2.23575924 61.77345940
   4.55098220  2.23055807 66.07968942
   2.18030094  0.76870951 50.51071075
   2.16474391  0.77056368 54.78537357
   2.25384973  0.76891652 59.62923180
   2.23700390  0.76435504 63.92131729
   2.22045328  0.75830835 68.23799178
   1.83471280  0.76183999 42.82025932
   1.78868850  0.75130183 33.52655054
   2.98713819  2.22718549  0.40662195
   1.75060697  0.74352130 24.23030602
   3.14222088  2.21409130  9.70845187
   1.58530466  0.74103647 14.94490841
   3.01566157  2.20977007 19.19660727
   1.56481137  0.74888504  5.51838838
   2.93477364  2.21476407 28.57895426
   3.00279675  2.22379546 37.86828040
   3.00522161  2.23420900 47.15160996
   0.63991066  0.76665826 47.40049198
   0.68314465  0.75658839 38.18410989
   0.61145175  0.74710061 28.86675808
   3.88325025  2.22008593  4.99488508
   0.69071180  0.74115313 19.59442379
   3.90477086  2.21056458 14.44998497
   0.81799752  0.74356084 10.24679230
   4.07190993  2.21150976 23.90705797
   0.71941932  0.75586469  0.75306900
   4.11380855  2.21873770 33.21999206
   4.16167250  2.22895641 42.52210652
   3.43089241  0.76285418 44.75504436
   3.39801679  0.75222237 35.45701976
   3.35508863  0.74413254 26.16141909
   1.36365637  2.21500475  7.93200379
   3.31516705  0.74080858 16.76455243
   1.33209256  2.20971103 17.33497840
   3.32883267  0.74764313  7.30133463
   1.34762594  2.21402871 26.63314315
   1.39269699  2.22266940 35.94266057
   1.42062336  2.23331457 45.21593011
   3.72900557  0.75755642 40.12554314
   3.67937359  0.74783068 30.82580280
   1.00129342  2.22142462  3.19310776
   3.68277286  0.74149648 21.48953163
   1.01554342  2.21098235 12.64492271
   3.68851888  0.74275252 12.03305910
   1.04338320  2.21105094 21.98123543
   3.67156609  0.75433405  2.61236232
   1.05251872  2.21790200 31.26779861
   1.10198135  2.22788372 40.57536702
   2.93708637  2.23778474 51.50295021
   2.92035031  2.23968585 55.92027609
   3.03302946  2.23729385 60.55136193
   3.00566972  2.23274370 64.89131164
   3.74312640  0.76734190 49.35374448
   3.74253854  0.76986455 53.66708576
   3.75329074  0.77056322 58.21939619
   3.78919019  0.76615792 62.73194066
   3.77251581  0.76083742 67.04619042
   0.62891130  0.76946170 51.68800489
   0.66967195  0.77086414 56.18627372
   0.67742396  0.76710049 60.75183436
   0.68494660  0.76196421 65.09589509
   1.42412009  2.23733457 49.53172234
   1.38735608  2.23924818 53.86114303
   1.50194521  2.23864157 58.48875486
   1.47743909  2.23370538 62.92666550
   1.44043508  2.22774614 67.27563460
   2.21135558  0.77280176 57.20559393
 


--------------------------------------------------------------------------------------------------------


 k-point  1 :   0.0000 0.0000 0.0000  plane waves:   17001
 k-point  2 :   0.5000-0.0000 0.0000  plane waves:   17046
 k-point  3 :   0.0000 0.3333 0.0000  plane waves:   17122
 k-point  4 :   0.5000 0.3333 0.0000  plane waves:   16979

 maximum and minimum number of plane-waves per node :      1738     1674

 maximum number of plane-waves:     17122
 maximum index in each direction: 
   IXMAX=    7   IYMAX=    4   IZMAX=  112
   IXMIN=   -8   IYMIN=   -5   IZMIN= -112

 WARNING: aliasing errors must be expected set NGX to  32 to avoid them
 WARNING: aliasing errors must be expected set NGY to  20 to avoid them
 WARNING: aliasing errors must be expected set NGZ to 450 to avoid them
 aliasing errors are usually negligible using standard VASP settings
 and one can safely disregard these warnings

 parallel 3D FFT for wavefunctions:
    minimum data exchange during FFTs selected (reduces bandwidth)
 parallel 3D FFT for charge:
    minimum data exchange during FFTs selected (reduces bandwidth)


 total amount of memory used by VASP on root node    51569. kBytes
========================================================================

   base      :      30000. kBytes
   nonl-proj :       5476. kBytes
   fftplans  :       1033. kBytes
   grid      :       2790. kBytes
   one-center:        311. kBytes
   wavefun   :      11959. kBytes
 
 Broyden mixing: mesh for mixing (old mesh)
   NGX = 15   NGY =  9   NGZ =225
  (NGX  = 48   NGY  = 28   NGZ  =672)
  gives a total of  30375 points

 initial charge density was supplied:
 charge density of overlapping atoms calculated
 number of electron     571.0000000 magnetization     120.0000000
 keeping initial charge density in first step


--------------------------------------------------------------------------------------------------------


 Maximum index for augmentation-charges          301 (set IRDMAX)


--------------------------------------------------------------------------------------------------------


 First call to EWALD:  gamma=   0.181
 Maximum number of real-space cells 5x 8x 1
 Maximum number of reciprocal cells 2x 1x16

 FEWALD executed in parallel
    FEWALD:  cpu time    0.01: real time    0.01


----------------------------------------- Iteration    1(   1)  ---------------------------------------


    POTLOK:  cpu time    0.17: real time    0.17
    SETDIJ:  cpu time    0.04: real time    0.04
     EDDAV:  cpu time   12.16: real time   12.23
       DOS:  cpu time    0.00: real time    0.00
    --------------------------------------------
      LOOP:  cpu time   12.39: real time   12.53

 eigenvalue-minimisations  :  6592
 total energy-change (2. order) : 0.7230300E+04  (-0.2050721E+05)
 number of electron     571.0000000 magnetization     120.0000000
 augmentation part      571.0000000 magnetization     120.0000000

 Free energy of the ion-electron system (eV)
  ---------------------------------------------------
  alpha Z        PSCENC =      2104.20446350
  Ewald energy   TEWEN  =    -28850.20746028
  -1/2 Hartree   DENC   =    -11903.56198119
  -exchange  EXHF       =         0.00000000
  -V(xc)+E(xc)   XCENC  =      1328.69460616
  PAW double counting   =     27278.96092844   -26863.34055171
  entropy T*S    EENTRO =         0.00028117
  eigenvalues    EBANDS =      5687.85048605
  atomic energy  EATOM  =     38447.69961849
  ---------------------------------------------------
  free energy    TOTEN  =      7230.30039064 eV

  energy without entropy =     7230.30010946  energy(sigma->0) =     7230.30029691


--------------------------------------------------------------------------------------------------------




----------------------------------------- Iteration    1(   2)  ---------------------------------------


     EDDAV:  cpu time    8.10: real time    8.21
       DOS:  cpu time    0.00: real time    0.00
    --------------------------------------------
      LOOP:  cpu time    8.10: real time    8.31

 eigenvalue-minimisations  :  6728
 total energy-change (2. order) :-0.6889709E+04  (-0.6303617E+04)
 number of electron     571.0000000 magnetization     120.0000000
 augmentation part      571.0000000 magnetization     120.0000000

 Free energy of the ion-electron system (eV)
  ---------------------------------------------------
  alpha Z        PSCENC =      2104.20446350
  Ewald energy   TEWEN  =    -28850.20746028
  -1/2 Hartree   DENC   =    -11903.56198119
  -exchange  EXHF       =         0.00000000
  -V(xc)+E(xc)   XCENC  =      1328.69460616
  PAW double counting   =     27278.96092844   -26863.34055171
  entropy T*S    EENTRO =        -0.00697764
  eigenvalues    EBANDS =     -1201.85114744
  atomic energy  EATOM  =     38447.69961849
  ---------------------------------------------------
  free energy    TOTEN  =       340.59149833 eV

  energy without entropy =      340.59847597  energy(sigma->0) =      340.59382421


--------------------------------------------------------------------------------------------------------




----------------------------------------- Iteration    1(   3)  ---------------------------------------


     EDDAV:  cpu time    7.51: real time    7.52
       DOS:  cpu time    0.00: real time    0.00
    --------------------------------------------
      LOOP:  cpu time    7.52: real time    7.62

 eigenvalue-minimisations  :  6760
 total energy-change (2. order) :-0.1131514E+04  (-0.1027684E+04)
 number of electron     571.0000000 magnetization     120.0000000
 augmentation part      571.0000000 magnetization     120.0000000

 Free energy of the ion-electron system (eV)
  ---------------------------------------------------
  alpha Z        PSCENC =      2104.20446350
  Ewald energy   TEWEN  =    -28850.20746028
  -1/2 Hartree   DENC   =    -11903.56198119
  -exchange  EXHF       =         0.00000000
  -V(xc)+E(xc)   XCENC  =      1328.69460616
  PAW double counting   =     27278.96092844   -26863.34055171
  entropy T*S    EENTRO =         0.01549731
  eigenvalues    EBANDS =     -2333.38800720
  atomic energy  EATOM  =     38447.69961849
  ---------------------------------------------------
  free energy    TOTEN  =      -790.92288648 eV

  energy without entropy =     -790.93838379  energy(sigma->0) =     -790.92805225


--------------------------------------------------------------------------------------------------------




----------------------------------------- Iteration    1(   4)  ---------------------------------------


     EDDAV:  cpu time    9.22: real time    9.23
       DOS:  cpu time    0.00: real time    0.00
    --------------------------------------------
      LOOP:  cpu time    9.23: real time    9.43

 eigenvalue-minimisations  :  8896
 total energy-change (2. order) :-0.7472780E+02  (-0.7326663E+02)
 number of electron     571.0000000 magnetization     120.0000000
 augmentation part      571.0000000 magnetization     120.0000000

 Free energy of the ion-electron system (eV)
  ---------------------------------------------------
  alpha Z        PSCENC =      2104.20446350
  Ewald energy   TEWEN  =    -28850.20746028
  -1/2 Hartree   DENC   =    -11903.56198119
  -exchange  EXHF       =         0.00000000
  -V(xc)+E(xc)   XCENC  =      1328.69460616
  PAW double counting   =     27278.96092844   -26863.34055171
  entropy T*S    EENTRO =         0.01328837
  eigenvalues    EBANDS =     -2408.11359996
  atomic energy  EATOM  =     38447.69961849
  ---------------------------------------------------
  free energy    TOTEN  =      -865.65068818 eV

  energy without entropy =     -865.66397655  energy(sigma->0) =     -865.65511763


--------------------------------------------------------------------------------------------------------




----------------------------------------- Iteration    1(   5)  ---------------------------------------


     EDDAV:  cpu time    9.59: real time    9.60
       DOS:  cpu time    0.00: real time    0.00
    CHARGE:  cpu time    0.18: real time    0.18
    MIXING:  cpu time    0.00: real time    0.00
    --------------------------------------------
      LOOP:  cpu time    9.78: real time    9.89

 eigenvalue-minimisations  :  9360
 total energy-change (2. order) :-0.1845028E+01  (-0.1839622E+01)
 number of electron     571.0000327 magnetization     119.6158854
 augmentation part      161.5749625 magnetization      84.3196688

 Broyden mixing:
  rms(total) = 0.10320E+02    rms(broyden)= 0.10314E+02
  rms(prec ) = 0.10406E+02
  weight for this iteration     100.00

 Free energy of the ion-electron system (eV)
  ---------------------------------------------------
  alpha Z        PSCENC =      2104.20446350
  Ewald energy   TEWEN  =    -28850.20746028
  -1/2 Hartree   DENC   =    -11903.56198119
  -exchange  EXHF       =         0.00000000
  -V(xc)+E(xc)   XCENC  =      1328.69460616
  PAW double counting   =     27278.96092844   -26863.34055171
  entropy T*S    EENTRO =         0.01425329
  eigenvalues    EBANDS =     -2409.95959297
  atomic energy  EATOM  =     38447.69961849
  ---------------------------------------------------
  free energy    TOTEN  =      -867.49571627 eV

  energy without entropy =     -867.50996956  energy(sigma->0) =     -867.50046736


--------------------------------------------------------------------------------------------------------




----------------------------------------- Iteration    1(   6)  ---------------------------------------


    POTLOK:  cpu time    0.05: real time    0.05
    SETDIJ:  cpu time    0.01: real time    0.01
     EDDAV:  cpu time    9.80: real time    9.81
       DOS:  cpu time    0.00: real time    0.00
    CHARGE:  cpu time    0.19: real time    0.19
    MIXING:  cpu time    0.00: real time    0.00
    --------------------------------------------
      LOOP:  cpu time   10.06: real time   10.19

 eigenvalue-minimisations  :  9624
 total energy-change (2. order) : 0.1281764E+03  (-0.1359357E+03)
 number of electron     570.9999919 magnetization     119.3834034
 augmentation part      192.1586164 magnetization      92.5558848

 Broyden mixing:
  rms(total) = 0.12385E+02    rms(broyden)= 0.12381E+02
  rms(prec ) = 0.12504E+02
  weight for this iteration     100.00

 eigenvalues of (default mixing * dielectric matrix)
  average eigenvalue GAMMA=   0.4480
  0.4480

 Free energy of the ion-electron system (eV)
  ---------------------------------------------------
  alpha Z        PSCENC =      2104.20446350
  Ewald energy   TEWEN  =    -28850.20746028
  -1/2 Hartree   DENC   =    -12226.44605316
  -exchange  EXHF       =         0.00000000
  -V(xc)+E(xc)   XCENC  =      1406.84236649
  PAW double counting   =     29472.44153014   -29021.67005846
  entropy T*S    EENTRO =        -0.02775459
  eigenvalues    EBANDS =     -2072.15597551
  atomic energy  EATOM  =     38447.69961849
  ---------------------------------------------------
  free energy    TOTEN  =      -739.31932337 eV

  energy without entropy =     -739.29156878  energy(sigma->0) =     -739.31007184


--------------------------------------------------------------------------------------------------------




----------------------------------------- Iteration    1(   7)  ---------------------------------------


    POTLOK:  cpu time    0.05: real time    0.05
    SETDIJ:  cpu time    0.01: real time    0.01
     EDDAV:  cpu time    9.12: real time    9.13
       DOS:  cpu time    0.00: real time    0.00
    CHARGE:  cpu time    0.19: real time    0.19
    MIXING:  cpu time    0.00: real time    0.00
    --------------------------------------------
      LOOP:  cpu time    9.38: real time    9.51

 eigenvalue-minimisations  :  8800
 total energy-change (2. order) : 0.9482476E+02  (-0.4389636E+02)
 number of electron     571.0000197 magnetization     119.1852800
 augmentation part      161.8815432 magnetization      89.2985249

 Broyden mixing:
  rms(total) = 0.43256E+01    rms(broyden)= 0.43178E+01
  rms(prec ) = 0.43528E+01
  weight for this iteration     100.00

 eigenvalues of (default mixing * dielectric matrix)
  average eigenvalue GAMMA=   0.4635
  0.6331  0.2939

 Free energy of the ion-electron system (eV)
  ---------------------------------------------------
  alpha Z        PSCENC =      2104.20446350
  Ewald energy   TEWEN  =    -28850.20746028
  -1/2 Hartree   DENC   =    -12159.28273585
  -exchange  EXHF       =         0.00000000
  -V(xc)+E(xc)   XCENC  =      1365.53542171
  PAW double counting   =     29681.57866789   -29325.52156726
  entropy T*S    EENTRO =         0.01566052
  eigenvalues    EBANDS =     -1908.51663694
  atomic energy  EATOM  =     38447.69961849
  ---------------------------------------------------
  free energy    TOTEN  =      -644.49456822 eV

  energy without entropy =     -644.51022873  energy(sigma->0) =     -644.49978839


--------------------------------------------------------------------------------------------------------




----------------------------------------- Iteration    1(   8)  ---------------------------------------


    POTLOK:  cpu time    0.05: real time    0.05
    SETDIJ:  cpu time    0.01: real time    0.01
     EDDAV:  cpu time    9.38: real time    9.38
       DOS:  cpu time    0.00: real time    0.00
    CHARGE:  cpu time    0.19: real time    0.19
    MIXING:  cpu time    0.00: real time    0.00
    --------------------------------------------
      LOOP:  cpu time    9.64: real time    9.83

 eigenvalue-minimisations  :  9112
 total energy-change (2. order) : 0.1199244E+02  (-0.7197897E+01)
 number of electron     571.0000179 magnetization     119.0144741
 augmentation part      164.4723645 magnetization      89.9889835

 Broyden mixing:
  rms(total) = 0.31786E+01    rms(broyden)= 0.31784E+01
  rms(prec ) = 0.32146E+01
  weight for this iteration     100.00

 eigenvalues of (default mixing * dielectric matrix)
  average eigenvalue GAMMA=   0.4641
  0.5049  0.4437  0.4437

 Free energy of the ion-electron system (eV)
  ---------------------------------------------------
  alpha Z        PSCENC =      2104.20446350
  Ewald energy   TEWEN  =    -28850.20746028
  -1/2 Hartree   DENC   =    -12113.14358386
  -exchange  EXHF       =         0.00000000
  -V(xc)+E(xc)   XCENC  =      1372.98058035
  PAW double counting   =     29997.78025459   -29643.63334656
  entropy T*S    EENTRO =         0.00363215
  eigenvalues    EBANDS =     -1948.18628863
  atomic energy  EATOM  =     38447.69961849
  ---------------------------------------------------
  free energy    TOTEN  =      -632.50213025 eV

  energy without entropy =     -632.50576240  energy(sigma->0) =     -632.50334096


--------------------------------------------------------------------------------------------------------




----------------------------------------- Iteration    1(   9)  ---------------------------------------


    POTLOK:  cpu time    0.05: real time    0.05
    SETDIJ:  cpu time    0.01: real time    0.01
     EDDAV:  cpu time    9.19: real time    9.20
       DOS:  cpu time    0.00: real time    0.00
    CHARGE:  cpu time    0.19: real time    0.19
    MIXING:  cpu time    0.00: real time    0.00
    --------------------------------------------
      LOOP:  cpu time    9.45: real time    9.55

 eigenvalue-minimisations  :  8856
 total energy-change (2. order) : 0.7563598E+01  (-0.7515029E+00)
 number of electron     571.0000169 magnetization     118.4982953
 augmentation part      165.5049092 magnetization      90.0654456

 Broyden mixing:
  rms(total) = 0.24864E+01    rms(broyden)= 0.24863E+01
  rms(prec ) = 0.25033E+01
  weight for this iteration     100.00

 eigenvalues of (default mixing * dielectric matrix)
  average eigenvalue GAMMA=   0.6234
  0.8789  0.8789  0.4267  0.3090

 Free energy of the ion-electron system (eV)
  ---------------------------------------------------
  alpha Z        PSCENC =      2104.20446350
  Ewald energy   TEWEN  =    -28850.20746028
  -1/2 Hartree   DENC   =    -12116.71096930
  -exchange  EXHF       =         0.00000000
  -V(xc)+E(xc)   XCENC  =      1379.52392471
  PAW double counting   =     30297.66952082   -29947.33234334
  entropy T*S    EENTRO =        -0.00145176
  eigenvalues    EBANDS =     -1939.78383493
  atomic energy  EATOM  =     38447.69961849
  ---------------------------------------------------
  free energy    TOTEN  =      -624.93853209 eV

  energy without entropy =     -624.93708032  energy(sigma->0) =     -624.93804817


--------------------------------------------------------------------------------------------------------




----------------------------------------- Iteration    1(  10)  ---------------------------------------


    POTLOK:  cpu time    0.05: real time    0.05
    SETDIJ:  cpu time    0.01: real time    0.01
     EDDAV:  cpu time    9.56: real time    9.56
       DOS:  cpu time    0.00: real time    0.00
    CHARGE:  cpu time    0.19: real time    0.19
    MIXING:  cpu time    0.00: real time    0.00
    --------------------------------------------
      LOOP:  cpu time    9.81: real time    9.91

 eigenvalue-minimisations  :  9368
 total energy-change (2. order) : 0.1116332E+02  (-0.1205789E+01)
 number of electron     571.0000134 magnetization     117.8675731
 augmentation part      168.4396227 magnetization      91.0750711

 Broyden mixing:
  rms(total) = 0.11984E+01    rms(broyden)= 0.11968E+01
  rms(prec ) = 0.12014E+01
  weight for this iteration     100.00

 eigenvalues of (default mixing * dielectric matrix)
  average eigenvalue GAMMA=   0.8374
  1.4416  1.4416  0.3708  0.4665  0.4665

 Free energy of the ion-electron system (eV)
  ---------------------------------------------------
  alpha Z        PSCENC =      2104.20446350
  Ewald energy   TEWEN  =    -28850.20746028
  -1/2 Hartree   DENC   =    -12120.30056910
  -exchange  EXHF       =         0.00000000
  -V(xc)+E(xc)   XCENC  =      1398.15890324
  PAW double counting   =     31053.03243945   -30709.02365245
  entropy T*S    EENTRO =         0.02630943
  eigenvalues    EBANDS =     -1937.36525949
  atomic energy  EATOM  =     38447.69961849
  ---------------------------------------------------
  free energy    TOTEN  =      -613.77520720 eV

  energy without entropy =     -613.80151663  energy(sigma->0) =     -613.78397701


--------------------------------------------------------------------------------------------------------




----------------------------------------- Iteration    1(  11)  ---------------------------------------


    POTLOK:  cpu time    0.05: real time    0.05
    SETDIJ:  cpu time    0.01: real time    0.01
     EDDAV:  cpu time    9.76: real time    9.77
       DOS:  cpu time    0.00: real time    0.00
    CHARGE:  cpu time    0.19: real time    0.19
    MIXING:  cpu time    0.00: real time    0.00
    --------------------------------------------
      LOOP:  cpu time   10.02: real time   10.14

 eigenvalue-minimisations  :  9592
 total energy-change (2. order) : 0.1062704E+01  (-0.6711413E+00)
 number of electron     571.0000126 magnetization     117.6067738
 augmentation part      170.0626624 magnetization      91.9567322

 Broyden mixing:
  rms(total) = 0.11926E+01    rms(broyden)= 0.11913E+01
  rms(prec ) = 0.13132E+01
  weight for this iteration     100.00

 eigenvalues of (default mixing * dielectric matrix)
  average eigenvalue GAMMA=   0.8582
  1.6707  1.6707  0.5311  0.5311  0.3960  0.3496

 Free energy of the ion-electron system (eV)
  ---------------------------------------------------
  alpha Z        PSCENC =      2104.20446350
  Ewald energy   TEWEN  =    -28850.20746028
  -1/2 Hartree   DENC   =    -12104.04201273
  -exchange  EXHF       =         0.00000000
  -V(xc)+E(xc)   XCENC  =      1413.06437844
  PAW double counting   =     31594.38880003   -31253.82882766
  entropy T*S    EENTRO =         0.02172019
  eigenvalues    EBANDS =     -1964.01318323
  atomic energy  EATOM  =     38447.69961849
  ---------------------------------------------------
  free energy    TOTEN  =      -612.71250326 eV

  energy without entropy =     -612.73422345  energy(sigma->0) =     -612.71974332


--------------------------------------------------------------------------------------------------------




----------------------------------------- Iteration    1(  12)  ---------------------------------------


    POTLOK:  cpu time    0.05: real time    0.05
    SETDIJ:  cpu time    0.01: real time    0.01
     EDDAV:  cpu time    9.28: real time    9.29
       DOS:  cpu time    0.00: real time    0.00
    CHARGE:  cpu time    0.19: real time    0.19
    MIXING:  cpu time    0.00: real time    0.00
    --------------------------------------------
      LOOP:  cpu time    9.54: real time    9.78

 eigenvalue-minimisations  :  9000
 total energy-change (2. order) :-0.1345266E+00  (-0.5145444E+00)
 number of electron     571.0000128 magnetization     117.2689336
 augmentation part      170.0355217 magnetization      92.4983600

 Broyden mixing:
  rms(total) = 0.10639E+01    rms(broyden)= 0.10638E+01
  rms(prec ) = 0.10675E+01
  weight for this iteration     100.00

 eigenvalues of (default mixing * dielectric matrix)
  average eigenvalue GAMMA=   0.8319
  1.7673  1.7673  0.5889  0.5889  0.4572  0.3581  0.2954

 Free energy of the ion-electron system (eV)
  ---------------------------------------------------
  alpha Z        PSCENC =      2104.20446350
  Ewald energy   TEWEN  =    -28850.20746028
  -1/2 Hartree   DENC   =    -12102.24067538
  -exchange  EXHF       =         0.00000000
  -V(xc)+E(xc)   XCENC  =      1416.42934077
  PAW double counting   =     31724.24108079   -31386.91285767
  entropy T*S    EENTRO =         0.03062617
  eigenvalues    EBANDS =     -1966.09116630
  atomic energy  EATOM  =     38447.69961849
  ---------------------------------------------------
  free energy    TOTEN  =      -612.84702991 eV

  energy without entropy =     -612.87765607  energy(sigma->0) =     -612.85723863


--------------------------------------------------------------------------------------------------------




----------------------------------------- Iteration    1(  13)  ---------------------------------------


    POTLOK:  cpu time    0.05: real time    0.05
    SETDIJ:  cpu time    0.01: real time    0.01
     EDDAV:  cpu time    9.35: real time    9.35
       DOS:  cpu time    0.00: real time    0.00
    CHARGE:  cpu time    0.19: real time    0.19
    MIXING:  cpu time    0.00: real time    0.00
    --------------------------------------------
      LOOP:  cpu time    9.61: real time    9.72

 eigenvalue-minimisations  :  9072
 total energy-change (2. order) :-0.6150827E+00  (-0.9716108E-01)
 number of electron     571.0000132 magnetization     117.0593889
 augmentation part      169.8653639 magnetization      92.3354131

 Broyden mixing:
  rms(total) = 0.96056E+00    rms(broyden)= 0.96053E+00
  rms(prec ) = 0.96293E+00
  weight for this iteration     100.00

 eigenvalues of (default mixing * dielectric matrix)
  average eigenvalue GAMMA=   0.8080
  1.7398  1.7398  0.6322  0.6322  0.5368  0.4780  0.3333  0.3722

 Free energy of the ion-electron system (eV)
  ---------------------------------------------------
  alpha Z        PSCENC =      2104.20446350
  Ewald energy   TEWEN  =    -28850.20746028
  -1/2 Hartree   DENC   =    -12094.28173236
  -exchange  EXHF       =         0.00000000
  -V(xc)+E(xc)   XCENC  =      1416.96573022
  PAW double counting   =     31787.21528644   -31453.74364940
  entropy T*S    EENTRO =         0.03364866
  eigenvalues    EBANDS =     -1971.34801785
  atomic energy  EATOM  =     38447.69961849
  ---------------------------------------------------
  free energy    TOTEN  =      -613.46211258 eV

  energy without entropy =     -613.49576124  energy(sigma->0) =     -613.47332880


--------------------------------------------------------------------------------------------------------




----------------------------------------- Iteration    1(  14)  ---------------------------------------


    POTLOK:  cpu time    0.05: real time    0.05
    SETDIJ:  cpu time    0.01: real time    0.01
     EDDAV:  cpu time    8.15: real time    8.15
       DOS:  cpu time    0.00: real time    0.00
    CHARGE:  cpu time    0.18: real time    0.19
    MIXING:  cpu time    0.00: real time    0.00
    --------------------------------------------
      LOOP:  cpu time    8.40: real time    8.51

 eigenvalue-minimisations  :  7576
 total energy-change (2. order) :-0.2208213E+00  (-0.3486051E-01)
 number of electron     571.0000130 magnetization     116.7596753
 augmentation part      169.9874476 magnetization      92.0371092

 Broyden mixing:
  rms(total) = 0.96941E+00    rms(broyden)= 0.96939E+00
  rms(prec ) = 0.97239E+00
  weight for this iteration     100.00

 eigenvalues of (default mixing * dielectric matrix)
  average eigenvalue GAMMA=   0.7912
  1.7108  1.7108  0.7852  0.7852  0.5429  0.5429  0.3698  0.3514  0.3219

 Free energy of the ion-electron system (eV)
  ---------------------------------------------------
  alpha Z        PSCENC =      2104.20446350
  Ewald energy   TEWEN  =    -28850.20746028
  -1/2 Hartree   DENC   =    -12091.38596044
  -exchange  EXHF       =         0.00000000
  -V(xc)+E(xc)   XCENC  =      1416.97683073
  PAW double counting   =     31815.65356299   -31483.52200456
  entropy T*S    EENTRO =         0.03910054
  eigenvalues    EBANDS =     -1973.14108489
  atomic energy  EATOM  =     38447.69961849
  ---------------------------------------------------
  free energy    TOTEN  =      -613.68293392 eV

  energy without entropy =     -613.72203446  energy(sigma->0) =     -613.69596743


--------------------------------------------------------------------------------------------------------




----------------------------------------- Iteration    1(  15)  ---------------------------------------


    POTLOK:  cpu time    0.05: real time    0.05
    SETDIJ:  cpu time    0.01: real time    0.01
     EDDAV:  cpu time    8.16: real time    8.16
       DOS:  cpu time    0.00: real time    0.00
    CHARGE:  cpu time    0.18: real time    0.19
    MIXING:  cpu time    0.00: real time    0.00
    --------------------------------------------
      LOOP:  cpu time    8.41: real time    8.53

 eigenvalue-minimisations  :  7616
 total energy-change (2. order) :-0.4425368E+00  (-0.1515149E-01)
 number of electron     571.0000130 magnetization     115.7934965
 augmentation part      169.9502618 magnetization      91.1037756

 Broyden mixing:
  rms(total) = 0.95042E+00    rms(broyden)= 0.95042E+00
  rms(prec ) = 0.95229E+00
  weight for this iteration     100.00

 eigenvalues of (default mixing * dielectric matrix)
  average eigenvalue GAMMA=   0.8404
  2.2112  1.3769  1.3769  0.8427  0.5482  0.5482  0.4184  0.4184  0.3578  0.3056

 Free energy of the ion-electron system (eV)
  ---------------------------------------------------
  alpha Z        PSCENC =      2104.20446350
  Ewald energy   TEWEN  =    -28850.20746028
  -1/2 Hartree   DENC   =    -12089.04641863
  -exchange  EXHF       =         0.00000000
  -V(xc)+E(xc)   XCENC  =      1416.40427924
  PAW double counting   =     31824.85975123   -31494.43632835
  entropy T*S    EENTRO =         0.04174537
  eigenvalues    EBANDS =     -1973.64512131
  atomic energy  EATOM  =     38447.69961849
  ---------------------------------------------------
  free energy    TOTEN  =      -614.12547074 eV

  energy without entropy =     -614.16721611  energy(sigma->0) =     -614.13938586


--------------------------------------------------------------------------------------------------------




----------------------------------------- Iteration    1(  16)  ---------------------------------------


    POTLOK:  cpu time    0.05: real time    0.05
    SETDIJ:  cpu time    0.01: real time    0.01
     EDDAV:  cpu time    9.03: real time    9.04
       DOS:  cpu time    0.00: real time    0.00
    CHARGE:  cpu time    0.18: real time    0.19
    MIXING:  cpu time    0.00: real time    0.00
    --------------------------------------------
      LOOP:  cpu time    9.29: real time    9.41

 eigenvalue-minimisations  :  8664
 total energy-change (2. order) :-0.1210794E+01  (-0.1500858E-01)
 number of electron     571.0000132 magnetization     113.3013859
 augmentation part      169.9325444 magnetization      88.6294366

 Broyden mixing:
  rms(total) = 0.91415E+00    rms(broyden)= 0.91415E+00
  rms(prec ) = 0.91607E+00
  weight for this iteration     100.00

 eigenvalues of (default mixing * dielectric matrix)
  average eigenvalue GAMMA=   0.8809
  2.4707  1.5329  1.5329  0.8472  0.6708  0.6708  0.4586  0.4586  0.3681  0.3681
  0.3115

 Free energy of the ion-electron system (eV)
  ---------------------------------------------------
  alpha Z        PSCENC =      2104.20446350
  Ewald energy   TEWEN  =    -28850.20746028
  -1/2 Hartree   DENC   =    -12083.24080387
  -exchange  EXHF       =         0.00000000
  -V(xc)+E(xc)   XCENC  =      1415.34888459
  PAW double counting   =     31851.77006436   -31525.22386817
  entropy T*S    EENTRO =         0.04777902
  eigenvalues    EBANDS =     -1975.73494207
  atomic energy  EATOM  =     38447.69961849
  ---------------------------------------------------
  free energy    TOTEN  =      -615.33626442 eV

  energy without entropy =     -615.38404345  energy(sigma->0) =     -615.35219076


--------------------------------------------------------------------------------------------------------




----------------------------------------- Iteration    1(  17)  ---------------------------------------


    POTLOK:  cpu time    0.05: real time    0.05
    SETDIJ:  cpu time    0.01: real time    0.01
     EDDAV:  cpu time    9.05: real time    9.06
       DOS:  cpu time    0.00: real time    0.00
    CHARGE:  cpu time    0.19: real time    0.19
    MIXING:  cpu time    0.00: real time    0.00
    --------------------------------------------
      LOOP:  cpu time    9.31: real time    9.42

 eigenvalue-minimisations  :  8696
 total energy-change (2. order) :-0.4426537E+01  (-0.1244312E+00)
 number of electron     571.0000133 magnetization     108.7414217
 augmentation part      169.4686680 magnetization      83.9504858

 Broyden mixing:
  rms(total) = 0.77950E+00    rms(broyden)= 0.77944E+00
  rms(prec ) = 0.78145E+00
  weight for this iteration     100.00

 eigenvalues of (default mixing * dielectric matrix)
  average eigenvalue GAMMA=   0.9318
  2.7081  1.7482  1.7482  0.9099  0.9099  0.6056  0.5378  0.5378  0.4181  0.3921
  0.3560  0.3095

 Free energy of the ion-electron system (eV)
  ---------------------------------------------------
  alpha Z        PSCENC =      2104.20446350
  Ewald energy   TEWEN  =    -28850.20746028
  -1/2 Hartree   DENC   =    -12071.13712826
  -exchange  EXHF       =         0.00000000
  -V(xc)+E(xc)   XCENC  =      1410.86581934
  PAW double counting   =     31818.37553874   -31497.82100116
  entropy T*S    EENTRO =         0.05052291
  eigenvalues    EBANDS =     -1981.79317502
  atomic energy  EATOM  =     38447.69961849
  ---------------------------------------------------
  free energy    TOTEN  =      -619.76280172 eV

  energy without entropy =     -619.81332463  energy(sigma->0) =     -619.77964269


--------------------------------------------------------------------------------------------------------




----------------------------------------- Iteration    1(  18)  ---------------------------------------


    POTLOK:  cpu time    0.05: real time    0.05
    SETDIJ:  cpu time    0.01: real time    0.01
     EDDAV:  cpu time    9.08: real time    9.08
       DOS:  cpu time    0.00: real time    0.00
    CHARGE:  cpu time    0.19: real time    0.19
    MIXING:  cpu time    0.00: real time    0.00
    --------------------------------------------
      LOOP:  cpu time    9.33: real time    9.45

 eigenvalue-minimisations  :  8704
 total energy-change (2. order) :-0.8057710E+01  (-0.3598791E+00)
 number of electron     571.0000134 magnetization     101.5139731
 augmentation part      169.5904516 magnetization      77.1356850

 Broyden mixing:
  rms(total) = 0.68700E+00    rms(broyden)= 0.68696E+00
  rms(prec ) = 0.69185E+00
  weight for this iteration     100.00

 eigenvalues of (default mixing * dielectric matrix)
  average eigenvalue GAMMA=   1.0896
  4.5391  1.8387  1.8387  1.0829  1.0829  0.6088  0.6088  0.6129  0.4521  0.4521
  0.3759  0.3640  0.3084

 Free energy of the ion-electron system (eV)
  ---------------------------------------------------
  alpha Z        PSCENC =      2104.20446350
  Ewald energy   TEWEN  =    -28850.20746028
  -1/2 Hartree   DENC   =    -12058.67631129
  -exchange  EXHF       =         0.00000000
  -V(xc)+E(xc)   XCENC  =      1404.88431772
  PAW double counting   =     31825.21654200   -31506.85178512
  entropy T*S    EENTRO =         0.04941561
  eigenvalues    EBANDS =     -1994.13931259
  atomic energy  EATOM  =     38447.69961849
  ---------------------------------------------------
  free energy    TOTEN  =      -627.82051195 eV

  energy without entropy =     -627.86992756  energy(sigma->0) =     -627.83698382


--------------------------------------------------------------------------------------------------------




----------------------------------------- Iteration    1(  19)  ---------------------------------------


    POTLOK:  cpu time    0.05: real time    0.05
    SETDIJ:  cpu time    0.01: real time    0.01
     EDDAV:  cpu time    8.76: real time    8.77
       DOS:  cpu time    0.00: real time    0.00
    CHARGE:  cpu time    0.19: real time    0.19
    MIXING:  cpu time    0.00: real time    0.00
    --------------------------------------------
      LOOP:  cpu time    9.02: real time    9.12

 eigenvalue-minimisations  :  8352
 total energy-change (2. order) :-0.9658949E+01  (-0.9790106E+00)
 number of electron     571.0000134 magnetization      95.7891404
 augmentation part      169.3147534 magnetization      71.8239756

 Broyden mixing:
  rms(total) = 0.44621E+00    rms(broyden)= 0.44611E+00
  rms(prec ) = 0.44848E+00
  weight for this iteration     100.00

 eigenvalues of (default mixing * dielectric matrix)
  average eigenvalue GAMMA=   1.4561
  9.6803  1.8163  1.8163  1.4429  0.9657  0.9657  0.6038  0.6038  0.4893  0.4893
  0.4604  0.3813  0.3613  0.3088

 Free energy of the ion-electron system (eV)
  ---------------------------------------------------
  alpha Z        PSCENC =      2104.20446350
  Ewald energy   TEWEN  =    -28850.20746028
  -1/2 Hartree   DENC   =    -12032.92611410
  -exchange  EXHF       =         0.00000000
  -V(xc)+E(xc)   XCENC  =      1397.03074725
  PAW double counting   =     31742.74556375   -31424.32868742
  entropy T*S    EENTRO =         0.06122308
  eigenvalues    EBANDS =     -2021.75881490
  atomic energy  EATOM  =     38447.69961849
  ---------------------------------------------------
  free energy    TOTEN  =      -637.47946062 eV

  energy without entropy =     -637.54068371  energy(sigma->0) =     -637.49986832


--------------------------------------------------------------------------------------------------------




----------------------------------------- Iteration    1(  20)  ---------------------------------------


    POTLOK:  cpu time    0.05: real time    0.05
    SETDIJ:  cpu time    0.01: real time    0.01
     EDDAV:  cpu time    8.93: real time    8.93
       DOS:  cpu time    0.00: real time    0.00
    CHARGE:  cpu time    0.19: real time    0.19
    MIXING:  cpu time    0.00: real time    0.00
    --------------------------------------------
      LOOP:  cpu time    9.18: real time    9.31

 eigenvalue-minimisations  :  8584
 total energy-change (2. order) :-0.3044649E+01  (-0.3455383E+00)
 number of electron     571.0000138 magnetization      93.0340681
 augmentation part      169.1201875 magnetization      69.2775972

 Broyden mixing:
  rms(total) = 0.28720E+00    rms(broyden)= 0.28703E+00
  rms(prec ) = 0.28913E+00
  weight for this iteration     100.00

 eigenvalues of (default mixing * dielectric matrix)
  average eigenvalue GAMMA=   2.2019
 21.0394  2.2478  1.6463  1.6463  1.0148  1.0148  0.7768  0.6042  0.6042  0.4712
  0.4712  0.4392  0.3825  0.3614  0.3087

 Free energy of the ion-electron system (eV)
  ---------------------------------------------------
  alpha Z        PSCENC =      2104.20446350
  Ewald energy   TEWEN  =    -28850.20746028
  -1/2 Hartree   DENC   =    -12018.65581100
  -exchange  EXHF       =         0.00000000
  -V(xc)+E(xc)   XCENC  =      1392.83238836
  PAW double counting   =     31600.16217136   -31274.54759878
  entropy T*S    EENTRO =         0.04839827
  eigenvalues    EBANDS =     -2042.06027965
  atomic energy  EATOM  =     38447.69961849
  ---------------------------------------------------
  free energy    TOTEN  =      -640.52410973 eV

  energy without entropy =     -640.57250800  energy(sigma->0) =     -640.54024248


--------------------------------------------------------------------------------------------------------




----------------------------------------- Iteration    1(  21)  ---------------------------------------


    POTLOK:  cpu time    0.05: real time    0.05
    SETDIJ:  cpu time    0.01: real time    0.01
     EDDAV:  cpu time    8.89: real time    8.90
       DOS:  cpu time    0.00: real time    0.00
    CHARGE:  cpu time    0.19: real time    0.19
    MIXING:  cpu time    0.00: real time    0.00
    --------------------------------------------
      LOOP:  cpu time    9.15: real time    9.26

 eigenvalue-minimisations  :  8512
 total energy-change (2. order) :-0.1107893E+00  (-0.4090757E-01)
 number of electron     571.0000136 magnetization      91.8584957
 augmentation part      169.1083567 magnetization      68.1979847

 Broyden mixing:
  rms(total) = 0.18740E+00    rms(broyden)= 0.18732E+00
  rms(prec ) = 0.18901E+00
  weight for this iteration     100.00

 eigenvalues of (default mixing * dielectric matrix)
  average eigenvalue GAMMA=   3.0634
 36.0055  2.3147  1.7083  1.7083  1.0854  1.0854  0.8896  0.6214  0.6214  0.5067
  0.5067  0.4546  0.4546  0.3088  0.3813  0.3615

 Free energy of the ion-electron system (eV)
  ---------------------------------------------------
  alpha Z        PSCENC =      2104.20446350
  Ewald energy   TEWEN  =    -28850.20746028
  -1/2 Hartree   DENC   =    -12017.78921450
  -exchange  EXHF       =         0.00000000
  -V(xc)+E(xc)   XCENC  =      1391.35361178
  PAW double counting   =     31544.54770234   -31214.33507546
  entropy T*S    EENTRO =         0.05024056
  eigenvalues    EBANDS =     -2046.15878545
  atomic energy  EATOM  =     38447.69961849
  ---------------------------------------------------
  free energy    TOTEN  =      -640.63489902 eV

  energy without entropy =     -640.68513958  energy(sigma->0) =     -640.65164587


--------------------------------------------------------------------------------------------------------




----------------------------------------- Iteration    1(  22)  ---------------------------------------


    POTLOK:  cpu time    0.05: real time    0.05
    SETDIJ:  cpu time    0.01: real time    0.01
     EDDAV:  cpu time    9.17: real time    9.17
       DOS:  cpu time    0.00: real time    0.00
    CHARGE:  cpu time    0.19: real time    0.19
    MIXING:  cpu time    0.00: real time    0.00
    --------------------------------------------
      LOOP:  cpu time    9.42: real time    9.54

 eigenvalue-minimisations  :  8824
 total energy-change (2. order) :-0.4159468E-01  (-0.1062854E-01)
 number of electron     571.0000137 magnetization      91.3872111
 augmentation part      169.1005409 magnetization      67.8097189

 Broyden mixing:
  rms(total) = 0.12324E+00    rms(broyden)= 0.12321E+00
  rms(prec ) = 0.12442E+00
  weight for this iteration     100.00

 eigenvalues of (default mixing * dielectric matrix)
  average eigenvalue GAMMA=   4.2374
 57.7283  2.3064  2.3064  1.4026  1.4026  0.9737  0.9737  0.7563  0.6112  0.6112
  0.3088  0.5256  0.3616  0.3819  0.4724  0.4724  0.4405

 Free energy of the ion-electron system (eV)
  ---------------------------------------------------
  alpha Z        PSCENC =      2104.20446350
  Ewald energy   TEWEN  =    -28850.20746028
  -1/2 Hartree   DENC   =    -12021.27177301
  -exchange  EXHF       =         0.00000000
  -V(xc)+E(xc)   XCENC  =      1391.43008811
  PAW double counting   =     31553.19011781   -31222.30331883
  entropy T*S    EENTRO =         0.05877972
  eigenvalues    EBANDS =     -2043.47700920
  atomic energy  EATOM  =     38447.69961849
  ---------------------------------------------------
  free energy    TOTEN  =      -640.67649369 eV

  energy without entropy =     -640.73527341  energy(sigma->0) =     -640.69608693


--------------------------------------------------------------------------------------------------------




----------------------------------------- Iteration    1(  23)  ---------------------------------------


    POTLOK:  cpu time    0.05: real time    0.05
    SETDIJ:  cpu time    0.01: real time    0.01
     EDDAV:  cpu time    9.32: real time    9.32
       DOS:  cpu time    0.00: real time    0.00
    CHARGE:  cpu time    0.19: real time    0.19
    MIXING:  cpu time    0.00: real time    0.00
    --------------------------------------------
      LOOP:  cpu time    9.58: real time    9.67

 eigenvalue-minimisations  :  9040
 total energy-change (2. order) :-0.1455079E-01  (-0.5558676E-02)
 number of electron     571.0000136 magnetization      91.1985612
 augmentation part      169.1066501 magnetization      67.6659779

 Broyden mixing:
  rms(total) = 0.82391E-01    rms(broyden)= 0.82370E-01
  rms(prec ) = 0.83758E-01
  weight for this iteration     100.00

 eigenvalues of (default mixing * dielectric matrix)
  average eigenvalue GAMMA=   4.5864
 67.1254  2.5444  2.1910  1.4947  1.4947  0.9971  0.9971  0.8415  0.6952  0.6157
  0.6157  0.3088  0.3615  0.3822  0.4782  0.4782  0.4877  0.4468

 Free energy of the ion-electron system (eV)
  ---------------------------------------------------
  alpha Z        PSCENC =      2104.20446350
  Ewald energy   TEWEN  =    -28850.20746028
  -1/2 Hartree   DENC   =    -12026.33288072
  -exchange  EXHF       =         0.00000000
  -V(xc)+E(xc)   XCENC  =      1391.67218395
  PAW double counting   =     31564.76231295   -31233.93641491
  entropy T*S    EENTRO =         0.06508259
  eigenvalues    EBANDS =     -2038.61795005
  atomic energy  EATOM  =     38447.69961849
  ---------------------------------------------------
  free energy    TOTEN  =      -640.69104448 eV

  energy without entropy =     -640.75612707  energy(sigma->0) =     -640.71273868


--------------------------------------------------------------------------------------------------------




----------------------------------------- Iteration    1(  24)  ---------------------------------------


    POTLOK:  cpu time    0.05: real time    0.05
    SETDIJ:  cpu time    0.01: real time    0.01
     EDDAV:  cpu time    9.37: real time    9.38
       DOS:  cpu time    0.00: real time    0.00
    CHARGE:  cpu time    0.19: real time    0.19
    MIXING:  cpu time    0.00: real time    0.00
    --------------------------------------------
      LOOP:  cpu time    9.63: real time    9.88

 eigenvalue-minimisations  :  9080
 total energy-change (2. order) :-0.5094425E-02  (-0.1876988E-02)
 number of electron     571.0000136 magnetization      91.1334111
 augmentation part      169.0682552 magnetization      67.5992116

 Broyden mixing:
  rms(total) = 0.68726E-01    rms(broyden)= 0.68717E-01
  rms(prec ) = 0.69307E-01
  weight for this iteration     100.00

 eigenvalues of (default mixing * dielectric matrix)
  average eigenvalue GAMMA=   4.5771
 70.4247  2.4505  2.4505  1.5663  1.5663  1.0694  1.0694  0.8262  0.6961  0.6961
  0.6122  0.6122  0.3088  0.3615  0.3821  0.4781  0.4781  0.4699  0.4465

 Free energy of the ion-electron system (eV)
  ---------------------------------------------------
  alpha Z        PSCENC =      2104.20446350
  Ewald energy   TEWEN  =    -28850.20746028
  -1/2 Hartree   DENC   =    -12028.23434729
  -exchange  EXHF       =         0.00000000
  -V(xc)+E(xc)   XCENC  =      1391.60477107
  PAW double counting   =     31564.41270271   -31233.79877866
  entropy T*S    EENTRO =         0.06887916
  eigenvalues    EBANDS =     -2036.44598761
  atomic energy  EATOM  =     38447.69961849
  ---------------------------------------------------
  free energy    TOTEN  =      -640.69613891 eV

  energy without entropy =     -640.76501807  energy(sigma->0) =     -640.71909863


--------------------------------------------------------------------------------------------------------




----------------------------------------- Iteration    1(  25)  ---------------------------------------


    POTLOK:  cpu time    0.05: real time    0.05
    SETDIJ:  cpu time    0.01: real time    0.01
     EDDAV:  cpu time    8.86: real time    8.87
       DOS:  cpu time    0.00: real time    0.00
    CHARGE:  cpu time    0.19: real time    0.19
    MIXING:  cpu time    0.00: real time    0.00
    --------------------------------------------
      LOOP:  cpu time    9.12: real time    9.24

 eigenvalue-minimisations  :  8496
 total energy-change (2. order) :-0.3999708E-02  (-0.7538220E-03)
 number of electron     571.0000136 magnetization      91.1223608
 augmentation part      169.0317693 magnetization      67.5718460

 Broyden mixing:
  rms(total) = 0.58574E-01    rms(broyden)= 0.58561E-01
  rms(prec ) = 0.59258E-01
  weight for this iteration     100.00

 eigenvalues of (default mixing * dielectric matrix)
  average eigenvalue GAMMA=   4.4826
 71.7948  2.5468  2.5468  1.6621  1.6621  1.1141  1.1141  0.9175  0.8211  0.8211
  0.6125  0.6125  0.3088  0.3615  0.3822  0.4982  0.4982  0.4703  0.4703  0.4379

 Free energy of the ion-electron system (eV)
  ---------------------------------------------------
  alpha Z        PSCENC =      2104.20446350
  Ewald energy   TEWEN  =    -28850.20746028
  -1/2 Hartree   DENC   =    -12028.51413953
  -exchange  EXHF       =         0.00000000
  -V(xc)+E(xc)   XCENC  =      1391.51813515
  PAW double counting   =     31561.67309434   -31231.30828761
  entropy T*S    EENTRO =         0.07180228
  eigenvalues    EBANDS =     -2035.83736496
  atomic energy  EATOM  =     38447.69961849
  ---------------------------------------------------
  free energy    TOTEN  =      -640.70013862 eV

  energy without entropy =     -640.77194090  energy(sigma->0) =     -640.72407271


--------------------------------------------------------------------------------------------------------




----------------------------------------- Iteration    1(  26)  ---------------------------------------


    POTLOK:  cpu time    0.05: real time    0.05
    SETDIJ:  cpu time    0.01: real time    0.01
     EDDAV:  cpu time    8.76: real time    8.77
       DOS:  cpu time    0.00: real time    0.00
    CHARGE:  cpu time    0.19: real time    0.19
    MIXING:  cpu time    0.00: real time    0.00
    --------------------------------------------
      LOOP:  cpu time    9.01: real time    9.13

 eigenvalue-minimisations  :  8336
 total energy-change (2. order) :-0.4431411E-02  (-0.5033843E-03)
 number of electron     571.0000136 magnetization      91.0700135
 augmentation part      169.0353969 magnetization      67.5197549

 Broyden mixing:
  rms(total) = 0.48942E-01    rms(broyden)= 0.48935E-01
  rms(prec ) = 0.49442E-01
  weight for this iteration     100.00

 eigenvalues of (default mixing * dielectric matrix)
  average eigenvalue GAMMA=   4.4045
 73.0631  3.2162  2.4293  1.6292  1.6292  1.4145  1.0513  1.0513  0.8514  0.8514
  0.6907  0.6143  0.6143  0.3088  0.4773  0.4773  0.5022  0.3615  0.3822  0.4394
  0.4394

 Free energy of the ion-electron system (eV)
  ---------------------------------------------------
  alpha Z        PSCENC =      2104.20446350
  Ewald energy   TEWEN  =    -28850.20746028
  -1/2 Hartree   DENC   =    -12028.57296339
  -exchange  EXHF       =         0.00000000
  -V(xc)+E(xc)   XCENC  =      1391.47387061
  PAW double counting   =     31561.03126601   -31230.71917024
  entropy T*S    EENTRO =         0.07575487
  eigenvalues    EBANDS =     -2035.68994961
  atomic energy  EATOM  =     38447.69961849
  ---------------------------------------------------
  free energy    TOTEN  =      -640.70457003 eV

  energy without entropy =     -640.78032490  energy(sigma->0) =     -640.72982165


--------------------------------------------------------------------------------------------------------




----------------------------------------- Iteration    1(  27)  ---------------------------------------


[...]
   -.149E+02 0.207E-01 0.121E+03   0.150E+02 -.204E-01 -.122E+03   -.815E-01 0.409E-03 0.902E+00   -.729E-02 -.479E-03 0.624E-01
   -.109E+02 0.312E-01 0.235E+03   0.110E+02 -.307E-01 -.236E+03   -.115E+00 -.439E-03 0.965E+00   -.201E-01 0.832E-06 -.337E-01
   -.137E+02 0.363E-01 0.341E+03   0.138E+02 -.368E-01 -.342E+03   -.129E+00 -.219E-03 0.943E+00   0.205E-02 0.151E-03 0.718E-01
   0.384E+00 0.167E-01 0.275E+03   -.395E+00 -.183E-01 -.275E+03   -.247E-01 -.161E-03 0.142E+00   0.197E-01 0.790E-03 0.537E-01
   0.186E+01 0.891E-02 0.639E+02   -.185E+01 -.104E-01 -.642E+02   -.127E-01 -.650E-03 0.255E+00   -.955E-03 0.862E-03 0.323E-01
   0.782E-01 0.529E-01 -.149E+02   -.869E-01 -.506E-01 0.149E+02   0.684E-02 -.483E-02 -.584E-02   0.347E-02 0.994E-03 0.228E-01
   -.217E+01 0.891E-02 -.841E+02   0.214E+01 -.110E-01 0.844E+02   -.768E-02 -.820E-03 -.280E+00   0.325E-01 0.146E-02 -.190E-01
   -.162E+01 0.233E-01 -.277E+03   0.161E+01 -.248E-01 0.277E+03   0.117E-01 0.635E-04 -.882E-01   -.200E-02 0.629E-03 -.945E-01
   -.614E+00 0.187E-01 0.168E+03   0.611E+00 -.201E-01 -.168E+03   0.136E-01 -.624E-03 0.399E-01   -.715E-02 0.879E-03 0.671E-01
   -.187E+01 0.220E-01 -.373E+01   0.199E+01 -.246E-01 0.218E+01   -.126E+00 0.555E-03 0.151E+01   -.127E-02 0.738E-03 0.394E-01
   0.182E+01 -.690E-02 -.222E+02   -.195E+01 0.120E-02 0.237E+02   0.139E+00 0.332E-02 -.153E+01   -.516E-02 0.979E-03 -.846E-02
   0.196E+01 0.121E-01 -.180E+03   -.193E+01 -.138E-01 0.180E+03   -.113E-01 -.274E-04 -.653E-01   -.114E-01 0.804E-03 -.778E-01
   0.538E+01 0.182E-01 -.370E+03   -.534E+01 -.198E-01 0.370E+03   -.562E-01 0.140E-02 -.139E+00   0.122E-01 0.539E-04 -.872E-01
   0.222E+02 -.986E-01 0.299E+03   -.235E+02 0.150E+00 -.308E+03   0.120E+01 -.513E-01 0.882E+01   0.242E-01 -.154E-03 0.606E-01
   0.234E+02 -.859E-01 0.204E+03   -.245E+02 0.128E+00 -.212E+03   0.110E+01 -.422E-01 0.878E+01   0.278E-02 0.845E-04 -.737E-02
   -.462E+01 -.119E+00 -.387E+03   0.403E+01 0.172E+00 0.397E+03   0.573E+00 -.528E-01 -.102E+02   0.740E-03 0.171E-05 -.550E-01
   0.231E+02 -.556E-01 0.104E+03   -.243E+02 0.824E-01 -.113E+03   0.117E+01 -.266E-01 0.852E+01   0.104E-01 0.157E-03 0.413E-01
   -.400E+02 -.901E-01 -.216E+03   0.465E+02 0.130E+00 0.219E+03   -.646E+01 -.400E-01 -.270E+01   -.176E-01 0.507E-03 -.467E-01
   0.354E+02 0.118E-01 -.482E+02   -.404E+02 -.238E-01 0.442E+02   0.492E+01 0.124E-01 0.396E+01   0.569E-02 0.429E-03 0.127E-01
   -.308E+02 -.912E-03 -.487E+02   0.337E+02 -.573E-02 0.551E+02   -.293E+01 0.694E-02 -.645E+01   -.122E-02 0.387E-03 0.409E-01
   0.385E+02 0.907E-01 -.241E+03   -.436E+02 -.142E+00 0.238E+03   0.521E+01 0.519E-01 0.311E+01   -.204E-01 0.197E-03 -.120E+00
   -.219E+02 0.516E-01 0.586E+02   0.222E+02 -.820E-01 -.493E+02   -.286E+00 0.305E-01 -.927E+01   -.132E-01 0.186E-03 -.203E-01
   -.233E+02 0.764E-01 0.159E+03   0.238E+02 -.117E+00 -.151E+03   -.584E+00 0.408E-01 -.856E+01   0.165E-01 0.111E-04 0.762E-01
   -.330E+02 0.597E-01 0.237E+03   0.326E+02 -.907E-01 -.228E+03   0.450E+00 0.305E-01 -.848E+01   -.158E-01 -.119E-03 0.151E-01
   -.134E+01 -.680E-01 0.318E+03   -.827E+00 0.101E+00 -.330E+03   0.215E+01 -.336E-01 0.119E+02   0.701E-02 -.323E-03 0.274E-01
   -.226E+02 -.936E-01 0.256E+03   0.239E+02 0.143E+00 -.264E+03   -.130E+01 -.492E-01 0.862E+01   -.242E-01 -.431E-04 0.707E-01
   -.201E+02 -.709E-01 0.158E+03   0.204E+02 0.107E+00 -.168E+03   -.313E+00 -.365E-01 0.945E+01   0.120E-01 0.132E-03 -.181E-01
   0.389E+02 -.126E+00 -.314E+03   -.452E+02 0.184E+00 0.317E+03   0.627E+01 -.581E-01 -.307E+01   0.335E-01 0.191E-03 -.116E+00
   -.273E+02 -.326E-01 0.386E+02   0.300E+02 0.437E-01 -.454E+02   -.267E+01 -.109E-01 0.671E+01   -.545E-02 0.273E-03 0.433E-01
   0.373E+02 -.421E-01 -.125E+03   -.426E+02 0.576E-01 0.129E+03   0.526E+01 -.151E-01 -.387E+01   0.343E-02 0.490E-03 0.131E-01
   -.385E+02 0.562E-01 -.145E+03   0.442E+02 -.919E-01 0.142E+03   -.573E+01 0.361E-01 0.268E+01   0.583E-02 0.491E-03 -.470E-01
   0.237E+02 0.295E-01 0.873E+01   -.247E+02 -.508E-01 -.287E+00   0.103E+01 0.215E-01 -.847E+01   -.519E-02 0.252E-03 0.333E-01
   -.400E+02 0.969E-01 -.315E+03   0.425E+02 -.150E+00 0.310E+03   -.247E+01 0.533E-01 0.566E+01   -.118E-01 0.154E-03 -.520E-01
   0.203E+02 0.613E-01 0.106E+03   -.206E+02 -.979E-01 -.967E+02   0.351E+00 0.364E-01 -.898E+01   0.123E-03 0.134E-03 -.266E-04
   0.196E+02 0.762E-01 0.201E+03   -.194E+02 -.120E+00 -.192E+03   -.154E+00 0.431E-01 -.904E+01   -.148E-01 -.117E-03 0.626E-01
   -.183E+03 0.598E-01 0.235E+03   0.217E+03 -.845E-01 -.229E+03   -.340E+02 0.242E-01 -.605E+01   -.137E-01 -.817E-04 0.259E-01
   -.184E+03 0.567E-01 0.148E+03   0.218E+03 -.838E-01 -.143E+03   -.342E+02 0.271E-01 -.543E+01   -.283E-02 0.640E-04 0.111E-01
   -.184E+03 0.363E-01 0.499E+02   0.218E+03 -.535E-01 -.440E+02   -.340E+02 0.173E-01 -.585E+01   -.155E-01 0.193E-03 0.209E-01
   0.189E+03 0.473E-01 -.201E+03   -.223E+03 -.777E-01 0.198E+03   0.341E+02 0.309E-01 0.381E+01   0.219E-02 0.359E-03 -.495E-01
   -.188E+03 -.241E-01 -.741E+02   0.222E+03 0.273E-01 0.787E+02   -.340E+02 -.274E-02 -.468E+01   -.355E-02 0.396E-03 0.222E-01
   0.187E+03 -.107E-01 -.144E+02   -.221E+03 0.832E-02 0.971E+01   0.342E+02 0.277E-02 0.463E+01   0.505E-02 0.323E-03 0.179E-01
   -.188E+03 -.944E-01 -.257E+03   0.222E+03 0.129E+00 0.261E+03   -.340E+02 -.345E-01 -.416E+01   0.485E-02 0.292E-03 -.460E-01
   0.183E+03 -.596E-01 0.117E+03   -.217E+03 0.798E-01 -.123E+03   0.340E+02 -.201E-01 0.591E+01   0.139E-01 0.106E-03 0.910E-02
   0.183E+03 -.918E-01 0.214E+03   -.218E+03 0.125E+00 -.220E+03   0.341E+02 -.336E-01 0.568E+01   0.789E-03 0.293E-04 0.110E-01
   0.182E+03 -.748E-01 0.301E+03   -.216E+03 0.108E+00 -.308E+03   0.341E+02 -.332E-01 0.606E+01   0.126E-01 -.210E-03 0.171E-01
   0.183E+03 0.567E-01 0.197E+03   -.217E+03 -.804E-01 -.191E+03   0.340E+02 0.235E-01 -.603E+01   0.152E-02 0.456E-04 0.197E-01
   0.182E+03 0.403E-01 0.979E+02   -.216E+03 -.591E-01 -.916E+02   0.340E+02 0.188E-01 -.630E+01   -.705E-03 0.143E-03 -.178E-02
   -.188E+03 0.792E-01 -.292E+03   0.222E+03 -.118E+00 0.288E+03   -.338E+02 0.384E-01 0.447E+01   -.945E-02 0.228E-03 -.576E-01
   0.186E+03 0.174E-01 -.441E+01   -.220E+03 -.288E-01 0.101E+02   0.339E+02 0.116E-01 -.567E+01   0.243E-02 0.288E-03 0.233E-01
   -.188E+03 0.200E-01 -.105E+03   0.222E+03 -.362E-01 0.101E+03   -.341E+02 0.167E-01 0.405E+01   0.386E-02 0.406E-03 0.252E-03
   0.189E+03 -.655E-01 -.160E+03   -.223E+03 0.837E-01 0.165E+03   0.341E+02 -.177E-01 -.424E+01   -.647E-02 0.433E-03 -.163E-01
   -.184E+03 -.406E-01 0.590E+02   0.218E+03 0.533E-01 -.648E+02   -.340E+02 -.124E-01 0.569E+01   -.119E-02 0.194E-03 0.310E-01
   0.186E+03 -.127E+00 -.350E+03   -.220E+03 0.174E+00 0.354E+03   0.341E+02 -.468E-01 -.443E+01   0.104E-01 0.640E-04 -.632E-01
   -.183E+03 -.647E-01 0.165E+03   0.217E+03 0.876E-01 -.171E+03   -.339E+02 -.229E-01 0.642E+01   0.374E-02 0.690E-04 0.989E-02
   -.183E+03 -.857E-01 0.263E+03   0.217E+03 0.116E+00 -.269E+03   -.340E+02 -.307E-01 0.641E+01   -.200E-02 -.128E-03 0.279E-01
   -.119E+02 0.295E-01 0.658E+02   0.729E+01 -.407E-01 -.539E+02   0.462E+01 0.105E-01 -.120E+02   -.137E-01 -.363E-03 0.271E-01
   -.244E+02 0.986E-03 -.408E+02   0.282E+02 0.380E-02 0.459E+02   -.380E+01 -.559E-02 -.508E+01   0.494E-02 -.383E-03 0.422E-01
   -.175E+02 -.753E-01 -.664E+02   0.176E+02 0.125E+00 0.774E+02   -.475E-01 -.504E-01 -.110E+02   -.334E-02 -.391E-03 -.218E-01
   -.131E+02 -.911E-01 -.228E+03   0.101E+02 0.132E+00 0.240E+03   0.299E+01 -.412E-01 -.118E+02   -.140E-01 -.351E-03 -.783E-01
   0.127E+02 0.490E-01 0.159E+03   -.843E+01 -.662E-01 -.146E+03   -.432E+01 0.165E-01 -.126E+02   -.680E-02 -.267E-03 0.453E-01
   0.833E+01 0.250E-01 -.229E+02   -.315E+01 -.392E-01 0.356E+02   -.519E+01 0.134E-01 -.127E+02   0.328E-02 -.397E-03 0.256E-01
   0.628E+01 -.423E-01 -.615E+02   -.249E+01 0.711E-01 0.767E+02   -.379E+01 -.296E-01 -.152E+02   -.217E-02 -.474E-03 0.191E-01
   0.135E+02 -.788E-01 -.144E+03   -.114E+02 0.121E+00 0.156E+03   -.213E+01 -.433E-01 -.115E+02   -.584E-02 -.284E-03 -.366E-01
   0.141E+02 -.104E+00 -.310E+03   -.114E+02 0.151E+00 0.322E+03   -.265E+01 -.474E-01 -.118E+02   -.285E-02 -.164E-03 -.656E-01
   -.131E+02 -.351E-01 0.129E+03   0.106E+02 0.548E-01 -.141E+03   0.245E+01 -.204E-01 0.116E+02   -.155E-03 -.416E-03 0.408E-01
   -.534E+01 0.562E-03 0.353E+02   0.117E+01 0.789E-02 -.503E+02   0.418E+01 -.923E-02 0.150E+02   -.651E-02 -.411E-03 0.465E-01
   -.873E+01 0.637E-01 0.276E+01   0.355E+01 -.103E+00 -.154E+02   0.517E+01 0.381E-01 0.126E+02   0.199E-01 -.256E-03 -.152E-01
   -.140E+02 0.846E-01 -.165E+03   0.103E+02 -.117E+00 0.154E+03   0.367E+01 0.318E-01 0.117E+02   0.337E-02 -.928E-04 -.654E-01
   0.122E+02 -.455E-01 0.222E+03   -.863E+01 0.690E-01 -.234E+03   -.364E+01 -.242E-01 0.125E+02   0.249E-02 -.402E-03 0.526E-01
   0.172E+02 -.334E-01 0.457E+02   -.170E+02 0.576E-01 -.569E+02   -.253E+00 -.249E-01 0.111E+02   -.611E-02 -.543E-03 0.274E-01
   0.239E+02 0.560E-01 0.154E+02   -.275E+02 -.729E-01 -.205E+02   0.357E+01 0.161E-01 0.503E+01   0.165E-02 -.478E-03 0.188E-01
   0.127E+02 0.733E-01 -.802E+02   -.829E+01 -.107E+00 0.684E+02   -.441E+01 0.324E-01 0.119E+02   0.223E-01 -.295E-03 -.212E-01
   0.171E+02 0.887E-01 -.250E+03   -.143E+02 -.128E+00 0.238E+03   -.286E+01 0.389E-01 0.112E+02   0.971E-02 -.320E-04 -.590E-01
   0.181E-01 0.501E-01 -.215E+01   -.927E-02 -.423E-01 0.216E+01   -.128E-01 -.914E-02 -.669E-02   -.697E-04 -.433E-06 0.491E-02
 -----------------------------------------------------------------------------------------------
   -.953E+00 0.175E+00 0.181E+01   0.777E-12 0.309E-12 -.255E-11   0.942E+00 -.193E+00 -.185E+01   0.121E-01 0.198E-02 0.307E-01
 
 
 POSITION                                       TOTAL-FORCE (eV/Angst)
 -----------------------------------------------------------------------------------
      0.34063      0.75929     41.58701         0.006219     -0.000147     -0.004982
      0.29383      0.74916     32.29014         0.005413      0.000312      0.003938
      4.49253      2.22353      1.62916        -0.004239      0.000173      0.029969
      0.26349      0.74214     22.98989         0.002938      0.000623     -0.010201
      4.53150      2.21152     11.06495        -0.004238      0.001160     -0.008763
      0.17891      0.74168     13.61262         0.003629      0.001199      0.006298
      4.47444      2.20970     20.47169        -0.007735      0.000734      0.001109
      0.17106      0.75174      4.17699         0.020255      0.000368     -0.008946
      4.44583      2.21593     29.78615        -0.002547      0.000344     -0.011869
      4.50248      2.22557     39.08412        -0.007953     -0.000110      0.001632
      2.19701      0.76467     46.22781        -0.010966     -0.000469     -0.027266
      2.18221      0.75413     36.94760        -0.006722     -0.000068      0.031954
      2.12477      0.74525     27.65026        -0.003595      0.000455     -0.019148
      2.48603      2.21662      6.34111         0.003239      0.000761     -0.018199
      2.15066      0.74060     18.31874        -0.000419      0.000926      0.000051
      2.49446      2.20929     15.77587         0.008608      0.001097     -0.013344
      2.20990      0.74551      8.89807        -0.005829      0.000960      0.016943
      2.58276      2.21224     25.13159         0.008534      0.000433      0.012031
      2.62014      2.22023     34.42841         0.003723      0.000237     -0.031214
      2.66694      2.23085     43.71562         0.008107     -0.000345     -0.003759
      4.50930      2.23541     48.36132        -0.016308     -0.000834     -0.016596
      4.49939      2.23800     52.64379        -0.004526     -0.001093     -0.000239
      4.54141      2.23932     57.19433         0.001575     -0.001350      0.007838
      4.57889      2.23500     61.75774        -0.011778     -0.001244     -0.003713
      4.56090      2.22985     66.06522         0.003824     -0.000546      0.011834
      2.18824      0.76844     50.49774         0.003653     -0.000973     -0.011422
      2.17295      0.77031     54.77260        -0.001983     -0.001155      0.002240
      2.26283      0.76865     59.61509         0.006231     -0.001217      0.005383
      2.24700      0.76410     63.90637         0.001768     -0.000764      0.012194
      2.23001      0.75809     68.22268        -0.009650      0.000061      0.025057
      1.84215      0.76161     42.80992         0.010128     -0.000215     -0.028170
      1.79341      0.75109     33.51777         0.019113      0.000147      0.004626
      2.98649      2.22648      0.40776        -0.013662     -0.000002      0.018339
      1.75467      0.74331     24.22489        -0.001741      0.000530     -0.014745
      3.14253      2.21344      9.70666        -0.016262      0.001030      0.004444
      1.58780      0.74084     14.94109         0.006314      0.001063     -0.017448
      3.01856      2.20911     19.19302        -0.011302      0.000869     -0.002770
      1.56427      0.74866      5.51534         0.031937      0.000694      0.007291
      2.93841      2.21409     28.57219         0.008488      0.000368      0.015158
      3.00916      2.22311     37.86097        -0.021787      0.000088     -0.008964
      3.01160      2.23351     47.14033        -0.005064     -0.000484      0.002702
      0.64691      0.76642     47.38867        -0.017205     -0.000700     -0.007795
      0.68756      0.75636     38.17533        -0.003246      0.000053     -0.024787
      0.61625      0.74689     28.85914        -0.008835      0.000369      0.001642
      3.88569      2.21940      4.99354         0.007661      0.000726      0.032047
      0.69290      0.74095     19.58990         0.002555      0.000758     -0.019987
      3.90675      2.20991     14.44738         0.015635      0.001134     -0.000641
      0.81925      0.74337     10.24381        -0.009364      0.001073     -0.015862
      4.07480      2.21084     23.90226         0.004406      0.000573      0.002918
      0.71884      0.75564      0.75317        -0.006814      0.000151     -0.005958
      4.11863      2.21806     33.21276         0.000293      0.000256      0.013802
      4.16739      2.22826     42.51318         0.014859     -0.000206      0.001704
      3.43749      0.76262     44.74439         0.003609     -0.000324     -0.007006
      3.40230      0.75201     35.44850         0.010877      0.000149      0.001694
      3.35903      0.74392     26.15595         0.005317      0.000466     -0.000125
      1.36518      2.21434      7.93011        -0.008754      0.000977     -0.002190
      3.31739      0.74062     16.76141         0.010329      0.001024      0.001367
      1.33461      2.20905     17.33093        -0.008777      0.000929     -0.008077
      3.32948      0.74743      7.30075         0.020114      0.000796      0.020197
      1.35103      2.21335     26.62666        -0.004026      0.000405     -0.001181
      1.39865      2.22198     35.93363        -0.012038      0.000149     -0.015071
      1.42713      2.23261     45.20419        -0.009418     -0.000446     -0.015289
      3.73471      0.75734     40.11554        -0.004183     -0.000001     -0.007429
      3.68374      0.74762     30.81851        -0.005487      0.000340      0.004515
      1.00192      2.22074      3.19277         0.008419      0.000479      0.004869
      3.68520      0.74130     21.48496        -0.006590      0.000712     -0.000964
      1.01716      2.21033     12.64242         0.009249      0.001097     -0.009195
      3.68989      0.74256     12.03073        -0.009415      0.001176      0.003799
      1.04718      2.21038     21.97634         0.008130      0.000603     -0.005291
      3.67134      0.75411      2.61220         0.000465      0.000326      0.014196
      1.05740      2.21722     31.26053         0.009763      0.000255     -0.003997
      1.10805      2.22719     40.56516         0.006144     -0.000171     -0.020766
      2.94442      2.23707     51.49061        -0.001879     -0.000929     -0.002795
      2.92851      2.23897     55.90732        -0.001552     -0.000998      0.005194
      3.04312      2.23658     60.53796         0.011220     -0.001097      0.006450
      3.01494      2.23204     64.87593         0.006631     -0.000696      0.012058
      3.74981      0.76710     49.34215        -0.011096     -0.000783     -0.003513
      3.75034      0.76961     53.65436        -0.006630     -0.001007      0.004252
      3.76193      0.77031     58.20604        -0.001677     -0.001109      0.011565
      3.79806      0.76593     62.71756        -0.002104     -0.000883      0.007682
      3.78290      0.76062     67.03044         0.000177     -0.000330      0.013594
      0.63620      0.76921     51.67621        -0.003448     -0.000981      0.003981
      0.67836      0.77062     56.17310         0.002986     -0.001012      0.006002
      0.68706      0.76687     60.73767         0.010251     -0.000991      0.009675
      0.69467      0.76175     65.08072         0.000138     -0.000506      0.008832
      1.43145      2.23662     49.52016        -0.013934     -0.000909     -0.001789
      1.39502      2.23852     53.84804        -0.006132     -0.001114      0.001712
      1.51052      2.23792     58.47461        -0.003840     -0.001146      0.001008
      1.48832      2.23300     62.91313         0.003653     -0.000974      0.013516
      1.45064      2.22707     67.25962         0.002174     -0.000147      0.005103
      2.21970      0.77254     57.19230        -0.004001     -0.001133      0.007059
 -----------------------------------------------------------------------------------
    total drift:                                0.000852     -0.016578     -0.007771


--------------------------------------------------------------------------------------------------------



  FREE ENERGIE OF THE ION-ELECTRON SYSTEM (eV)
  ---------------------------------------------------
  free  energy   TOTEN  =      -640.71920431 eV

  energy  without entropy=     -640.80072860  energy(sigma->0) =     -640.74637908
 
 d Force = 0.2383482E-03[ 0.182E-04, 0.458E-03]  d Energy = 0.4395516E-03-0.201E-03
 d Force =-0.1599305E+01[-0.160E+01,-0.160E+01]  d Ewald  =-0.4342841E+01 0.274E+01


--------------------------------------------------------------------------------------------------------


    POTLOK:  cpu time    0.07: real time    0.07


--------------------------------------------------------------------------------------------------------




--------------------------------------------------------------------------------------------------------


  
 reached required accuracy - stopping structural energy minimisation
     LOOP+:  cpu time   34.11: real time   34.99
    4ORBIT:  cpu time    0.00: real time    0.00

 total amount of memory used by VASP on root node    51569. kBytes
========================================================================

   base      :      30000. kBytes
   nonl-proj :       5476. kBytes
   fftplans  :       1033. kBytes
   grid      :       2790. kBytes
   one-center:        311. kBytes
   wavefun   :      11959. kBytes
 
  
  
 General timing and accounting informations for this job:
 ========================================================
  
                  Total CPU time used (sec):      438.734
                            User time (sec):      437.635
                          System time (sec):        1.099
                         Elapsed time (sec):      447.668
  
                   Maximum memory used (kb):      125088.
                   Average memory used (kb):           0.
  
                          Minor page faults:        17678
                          Major page faults:            0
                 Voluntary context switches:        16614
