 vasp.5.3.3 18Dez12 (build May 12 2016 12:04:25) complex                        
  
 executed on             LinuxIFC date 2019.05.18  11:38:11
 running on   32 total cores
 distrk:  each k-point on   32 cores,    1 groups
 distr:  one band on NCORES_PER_BAND=   4 cores,    8 groups


--------------------------------------------------------------------------------------------------------


 INCAR:
 POTCAR:    PAW_PBE Mn 06Sep2000                  
 POTCAR:    PAW_PBE O 08Apr2002                   
 POTCAR:    PAW_PBE Mn 06Sep2000                  
  local pseudopotential read in
  partial core-charges read in
  partial kinetic energy density read in
  atomic valenz-charges read in
  non local Contribution for L=           2  read in
    real space projection operators read in
  non local Contribution for L=           2  read in
    real space projection operators read in
  non local Contribution for L=           0  read in
    real space projection operators read in
  non local Contribution for L=           0  read in
    real space projection operators read in
  non local Contribution for L=           1  read in
    real space projection operators read in
  non local Contribution for L=           1  read in
    real space projection operators read in
    PAW grid and wavefunctions read in
 
   number of l-projection  operators is LMAX  =           6
   number of lm-projection operators is LMMAX =          18
 
 POTCAR:    PAW_PBE O 08Apr2002                   
  local pseudopotential read in
  partial core-charges read in
  partial kinetic energy density read in
  kinetic energy density of atom read in
  atomic valenz-charges read in
  non local Contribution for L=           0  read in
    real space projection operators read in
  non local Contribution for L=           0  read in
    real space projection operators read in
  non local Contribution for L=           1  read in
    real space projection operators read in
  non local Contribution for L=           1  read in
    real space projection operators read in
    PAW grid and wavefunctions read in
 
   number of l-projection  operators is LMAX  =           4
   number of lm-projection operators is LMMAX =           8
 

 ----------------------------------------------------------------------------- 
|                                                                             |
|  ADVICE TO THIS USER RUNNING 'VASP/VAMP'   (HEAR YOUR MASTER'S VOICE ...):  |
|                                                                             |
|      You enforced a specific xc-type in the INCAR file,                     |
|      a different type was found on the POTCAR file                          |
|          I HOPE YOU KNOW, WHAT YOU ARE  DOING                               |
|                                                                             |
 ----------------------------------------------------------------------------- 

  PAW_PBE Mn 06Sep2000                  :
 energy of atom  1       EATOM= -416.7541
 kinetic energy error for atom=    0.0024 (will be added to EATOM!!)
  PAW_PBE O 08Apr2002                   :
 energy of atom  2       EATOM= -432.3788
 kinetic energy error for atom=    0.0208 (will be added to EATOM!!)
 
 
 POSCAR: (Mn O2)4  (Pnma) ~  (Pearson #541374)_1 
  positions in direct lattice
  velocities in cartesian coordinates
 exchange correlation table for  LEXCH =       14
   RHO(1)=    0.500       N(1)  =     2000
   RHO(2)=  100.500       N(2)  =     4000
 


--------------------------------------------------------------------------------------------------------


 ion  position               nearest neighbor table
   1  0.136  0.250  0.034-   5 1.85   8 1.88   8 1.88  12 1.89  12 1.89  10 1.91   3 2.88   3 2.88

   2  0.636  0.250  0.466-   6 1.85   7 1.88   7 1.88  11 1.89  11 1.89   9 1.91   4 2.88   4 2.88

   3  0.864  0.750  0.966-   7 1.85   6 1.88   6 1.88  10 1.89  10 1.89  12 1.91   1 2.88   1 2.88

   4  0.364  0.750  0.534-   8 1.85   5 1.88   5 1.88   9 1.89   9 1.89  11 1.91   2 2.88   2 2.88

   5  0.277  0.250  0.326-   1 1.85   4 1.88   4 1.88
   6  0.777  0.250  0.174-   2 1.85   3 1.88   3 1.88
   7  0.723  0.750  0.674-   3 1.85   2 1.88   2 1.88
   8  0.223  0.750  0.826-   4 1.85   1 1.88   1 1.88
   9  0.467  0.250  0.713-   4 1.89   4 1.89   2 1.91
  10  0.967  0.250  0.787-   3 1.89   3 1.89   1 1.91
  11  0.533  0.750  0.287-   2 1.89   2 1.89   4 1.91
  12  0.033  0.750  0.213-   1 1.89   1 1.89   3 1.91
 
  LATTYP: Found a simple orthorhombic cell.
 ALAT       =     2.8367965838
 B/A-ratio  =     1.6012529148
 C/A-ratio  =     3.2295553795
  
  Lattice vectors:
  
 A1 = (   0.0000000000,   2.8367965838,   0.0000000000)
 A2 = (   0.0000000000,   0.0000000000,  -4.5424287986)
 A3 = (  -9.1615916680,   0.0000000000,   0.0000000000)


Analysis of symmetry for initial positions (statically):
=====================================================================
 Subroutine PRICEL returns:
 Original cell was already a primitive cell.
 

 Routine SETGRP: Setting up the symmetry group for a 
 simple orthorhombic supercell.


 Subroutine GETGRP returns: Found  8 space group operations
 (whereof  2 operations were pure point group operations)
 out of a pool of  8 trial point group operations.


The static configuration has the point symmetry S_2 .
 The point group associated with its full space group is D_2h.


Analysis of symmetry for dynamics (positions and initial velocities):
=====================================================================
 Subroutine PRICEL returns:
 Original cell was already a primitive cell.
 

 Routine SETGRP: Setting up the symmetry group for a 
 simple orthorhombic supercell.


 Subroutine GETGRP returns: Found  8 space group operations
 (whereof  2 operations were pure point group operations)
 out of a pool of  8 trial point group operations.


The dynamic configuration has the point symmetry S_2 .
 The point group associated with its full space group is D_2h.


Analysis of magnetic symmetry:
=====================================================================

 Subroutine MAGSYM returns: Found  8 space group operations
 (whereof  2 operations were pure point group operations)
 out of a pool of  8 trial space group operations
 (whereof  2 operations were pure point group operations)
 and found also     1 'primitive' translations


The magnetic configuration has the point symmetry S_2 .
 The point group associated with its full space group is D_2h.


 irot  :   1
 --------------------------------------------------------------------
 isymop:   1   0   0
           0   1   0
           0   0   1

 gtrans:     0.0000000     0.0000000     0.0000000

 ptrans:     0.0000000     0.0000000     0.0000000
 rotmap:
 (   1->   1)  (   2->   2)  (   3->   3)  (   4->   4)  (   5->   5) 
 (   6->   6)  (   7->   7)  (   8->   8)  (   9->   9)  (  10->  10) 
 (  11->  11)  (  12->  12) 


 irot  :   2
 --------------------------------------------------------------------
 isymop:  -1   0   0
           0  -1   0
           0   0  -1

 gtrans:     0.0000000     0.0000000     0.0000000

 ptrans:     0.0000000     0.0000000     0.0000000
 rotmap:
 (   1->   3)  (   2->   4)  (   3->   1)  (   4->   2)  (   5->   7) 
 (   6->   8)  (   7->   5)  (   8->   6)  (   9->  11)  (  10->  12) 
 (  11->   9)  (  12->  10) 


 irot  :   3
 --------------------------------------------------------------------
 isymop:   1   0   0
           0  -1   0
           0   0  -1

 gtrans:    -0.5000000     0.5000000    -0.5000000

 ptrans:     0.0000000     0.0000000     0.0000000
 rotmap:
 (   1->   2)  (   2->   1)  (   3->   4)  (   4->   3)  (   5->   6) 
 (   6->   5)  (   7->   8)  (   8->   7)  (   9->  10)  (  10->   9) 
 (  11->  12)  (  12->  11) 


 irot  :   4
 --------------------------------------------------------------------
 isymop:  -1   0   0
           0   1   0
           0   0   1

 gtrans:    -0.5000000     0.5000000    -0.5000000

 ptrans:     0.0000000     0.0000000     0.0000000
 rotmap:
 (   1->   4)  (   2->   3)  (   3->   2)  (   4->   1)  (   5->   8) 
 (   6->   7)  (   7->   6)  (   8->   5)  (   9->  12)  (  10->  11) 
 (  11->  10)  (  12->   9) 


 irot  :   5
 --------------------------------------------------------------------
 isymop:  -1   0   0
           0  -1   0
           0   0   1

 gtrans:    -0.5000000     0.0000000    -0.5000000

 ptrans:     0.0000000     0.0000000     0.0000000
 rotmap:
 (   1->   4)  (   2->   3)  (   3->   2)  (   4->   1)  (   5->   8) 
 (   6->   7)  (   7->   6)  (   8->   5)  (   9->  12)  (  10->  11) 
 (  11->  10)  (  12->   9) 


 irot  :   6
 --------------------------------------------------------------------
 isymop:   1   0   0
           0   1   0
           0   0  -1

 gtrans:    -0.5000000     0.0000000    -0.5000000

 ptrans:     0.0000000     0.0000000     0.0000000
 rotmap:
 (   1->   2)  (   2->   1)  (   3->   4)  (   4->   3)  (   5->   6) 
 (   6->   5)  (   7->   8)  (   8->   7)  (   9->  10)  (  10->   9) 
 (  11->  12)  (  12->  11) 


 irot  :   7
 --------------------------------------------------------------------
 isymop:  -1   0   0
           0   1   0
           0   0  -1

 gtrans:    -0.0000000     0.5000000    -0.0000000

 ptrans:     0.0000000     0.0000000     0.0000000
 rotmap:
 (   1->   3)  (   2->   4)  (   3->   1)  (   4->   2)  (   5->   7) 
 (   6->   8)  (   7->   5)  (   8->   6)  (   9->  11)  (  10->  12) 
 (  11->   9)  (  12->  10) 


 irot  :   8
 --------------------------------------------------------------------
 isymop:   1   0   0
           0  -1   0
           0   0   1

 gtrans:     0.0000000     0.5000000     0.0000000

 ptrans:     0.0000000     0.0000000     0.0000000
 rotmap:
 (   1->   1)  (   2->   2)  (   3->   3)  (   4->   4)  (   5->   5) 
 (   6->   6)  (   7->   7)  (   8->   8)  (   9->   9)  (  10->  10) 
 (  11->  11)  (  12->  12) 
 
 
 KPOINTS: Automatic mesh                          

Automatic generation of k-mesh.
Space group operators:
 irot       det(A)        alpha          n_x          n_y          n_z        tau_x        tau_y        tau_z
    1     1.000000     0.000001     1.000000     0.000000     0.000000     0.000000     0.000000     0.000000
    2    -1.000000     0.000001     1.000000     0.000000     0.000000     0.000000     0.000000     0.000000
    3     1.000000   180.000000     1.000000     0.000000     0.000000    -0.500000     0.500000    -0.500000
    4    -1.000000   180.000000     1.000000     0.000000     0.000000    -0.500000     0.500000    -0.500000
    5     1.000000   179.999999     0.000000     0.000000     1.000000    -0.500000     0.000000    -0.500000
    6    -1.000000   179.999999     0.000000     0.000000     1.000000    -0.500000     0.000000    -0.500000
    7     1.000000   180.000000     0.000000     1.000000     0.000000    -0.000000     0.500000    -0.000000
    8    -1.000000   180.000000     0.000000     1.000000     0.000000     0.000000     0.500000     0.000000
 
 Subroutine IBZKPT returns following result:
 ===========================================
 
 Found     40 irreducible k-points:
 
 Following reciprocal coordinates:
            Coordinates               Weight
  0.000000  0.000000  0.000000      1.000000
  0.333333  0.000000  0.000000      2.000000
  0.000000  0.111111  0.000000      2.000000
  0.333333  0.111111  0.000000      4.000000
  0.000000  0.222222  0.000000      2.000000
  0.333333  0.222222  0.000000      4.000000
  0.000000  0.333333  0.000000      2.000000
  0.333333  0.333333  0.000000      4.000000
  0.000000  0.444444  0.000000      2.000000
  0.333333  0.444444  0.000000      4.000000
  0.000000  0.000000  0.166667      2.000000
  0.333333  0.000000  0.166667      4.000000
  0.000000  0.111111  0.166667      4.000000
  0.333333  0.111111  0.166667      8.000000
  0.000000  0.222222  0.166667      4.000000
  0.333333  0.222222  0.166667      8.000000
  0.000000  0.333333  0.166667      4.000000
  0.333333  0.333333  0.166667      8.000000
  0.000000  0.444444  0.166667      4.000000
  0.333333  0.444444  0.166667      8.000000
  0.000000  0.000000  0.333333      2.000000
  0.333333  0.000000  0.333333      4.000000
  0.000000  0.111111  0.333333      4.000000
  0.333333  0.111111  0.333333      8.000000
  0.000000  0.222222  0.333333      4.000000
  0.333333  0.222222  0.333333      8.000000
  0.000000  0.333333  0.333333      4.000000
  0.333333  0.333333  0.333333      8.000000
  0.000000  0.444444  0.333333      4.000000
  0.333333  0.444444  0.333333      8.000000
  0.000000  0.000000  0.500000      1.000000
  0.333333  0.000000  0.500000      2.000000
  0.000000  0.111111  0.500000      2.000000
  0.333333  0.111111  0.500000      4.000000
  0.000000  0.222222  0.500000      2.000000
  0.333333  0.222222  0.500000      4.000000
  0.000000  0.333333  0.500000      2.000000
  0.333333  0.333333  0.500000      4.000000
  0.000000  0.444444  0.500000      2.000000
  0.333333  0.444444  0.500000      4.000000
 
 Following cartesian coordinates:
            Coordinates               Weight
  0.000000  0.000000  0.000000      1.000000
  0.036384  0.000000  0.000000      2.000000
  0.000000  0.039168  0.000000      2.000000
  0.036384  0.039168  0.000000      4.000000
  0.000000  0.078336  0.000000      2.000000
  0.036384  0.078336  0.000000      4.000000
  0.000000  0.117503  0.000000      2.000000
  0.036384  0.117503  0.000000      4.000000
  0.000000  0.156671  0.000000      2.000000
  0.036384  0.156671  0.000000      4.000000
  0.000000  0.000000  0.036691      2.000000
  0.036384  0.000000  0.036691      4.000000
  0.000000  0.039168  0.036691      4.000000
  0.036384  0.039168  0.036691      8.000000
  0.000000  0.078336  0.036691      4.000000
  0.036384  0.078336  0.036691      8.000000
  0.000000  0.117503  0.036691      4.000000
  0.036384  0.117503  0.036691      8.000000
  0.000000  0.156671  0.036691      4.000000
  0.036384  0.156671  0.036691      8.000000
  0.000000  0.000000  0.073382      2.000000
  0.036384  0.000000  0.073382      4.000000
  0.000000  0.039168  0.073382      4.000000
  0.036384  0.039168  0.073382      8.000000
  0.000000  0.078336  0.073382      4.000000
  0.036384  0.078336  0.073382      8.000000
  0.000000  0.117503  0.073382      4.000000
  0.036384  0.117503  0.073382      8.000000
  0.000000  0.156671  0.073382      4.000000
  0.036384  0.156671  0.073382      8.000000
  0.000000  0.000000  0.110073      1.000000
  0.036384  0.000000  0.110073      2.000000
  0.000000  0.039168  0.110073      2.000000
  0.036384  0.039168  0.110073      4.000000
  0.000000  0.078336  0.110073      2.000000
  0.036384  0.078336  0.110073      4.000000
  0.000000  0.117503  0.110073      2.000000
  0.036384  0.117503  0.110073      4.000000
  0.000000  0.156671  0.110073      2.000000
  0.036384  0.156671  0.110073      4.000000
 
 TETIRR: Found    477 inequivalent tetrahedra from      972


--------------------------------------------------------------------------------------------------------




 Dimension of arrays:
   k-points           NKPTS =     40   k-points in BZ     NKDIM =     40   number of bands    NBANDS=     48
   number of dos      NEDOS =    301   number of ions     NIONS =     12
   non local maximal  LDIM  =      6   non local SUM 2l+1 LMDIM =     18
   total plane-waves  NPLWV =  24192
   max r-space proj   IRMAX =      1   max aug-charges    IRDMAX=   7733
   dimension x,y,z NGX =    54 NGY =   16 NGZ =   28
   dimension x,y,z NGXF=   108 NGYF=   32 NGZF=   56
   support grid    NGXF=   108 NGYF=   32 NGZF=   56
   ions per type =               4   8
 NGX,Y,Z   is equivalent  to a cutoff of   9.80,  9.38, 10.25 a.u.
 NGXF,Y,Z  is equivalent  to a cutoff of  19.60, 18.75, 20.50 a.u.


 I would recommend the setting:
   dimension x,y,z NGX =    51 NGY =   16 NGZ =   25
 SYSTEM =  (Mn O2)4  (Pnma) ~  (Pearson            
 POSCAR =  (Mn O2)4  (Pnma) ~  (Pearson #541374)_1 

 Startparameter for this run:
   NWRITE =      1    write-flag & timer
   PREC   = normal    normal or accurate (medium, high low for compatibility)
   ISTART =      0    job   : 0-new  1-cont  2-samecut
   ICHARG =      2    charge: 1-file 2-atom 10-const
   ISPIN  =      2    spin polarized calculation?
   LNONCOLLINEAR =      F non collinear calculations
   LSORBIT =      F    spin-orbit coupling
   INIWAV =      1    electr: 0-lowe 1-rand  2-diag
   LASPH  =      F    aspherical Exc in radial PAW
   METAGGA=      F    non-selfconsistent MetaGGA calc.

 Electronic Relaxation 1
   ENCUT  =  520.0 eV  38.22 Ry    6.18 a.u.  17.03  5.27  8.45*2*pi/ulx,y,z
   ENINI  =  520.0     initial cutoff
   ENAUG  =  605.4 eV  augmentation charge cutoff
   NELM   =     60;   NELMIN=  2; NELMDL= -5     # of ELM steps 
   EDIFF  = 0.1E-03   stopping-criterion for ELM
   LREAL  =      F    real-space projection
   NLSPLINE    = F    spline interpolate recip. space projectors
   LCOMPAT=      F    compatible to vasp.4.4
   GGA_COMPAT  = T    GGA compatible to vasp.4.4-vasp.4.6
   LMAXPAW     = -100 max onsite density
   LMAXMIX     =    2 max onsite mixed and CHGCAR
   VOSKOWN=      1    Vosko Wilk Nusair interpolation
   ROPT   =    0.00000   0.00000
 Ionic relaxation
   EDIFFG = 0.1E-02   stopping-criterion for IOM
   NSW    =      0    number of steps for IOM
   NBLOCK =      1;   KBLOCK =      1    inner block; outer block 
   IBRION =     -1    ionic relax: 0-MD 1-quasi-New 2-CG
   NFREE  =      0    steps in history (QN), initial steepest desc. (CG)
   ISIF   =      2    stress and relaxation
   IWAVPR =     10    prediction:  0-non 1-charg 2-wave 3-comb
   ISYM   =      2    0-nonsym 1-usesym 2-fastsym
   LCORR  =      T    Harris-Foulkes like correction to forces

   POTIM  = 0.5000    time-step for ionic-motion
   TEIN   =    0.0    initial temperature
   TEBEG  =    0.0;   TEEND  =   0.0 temperature during run
   SMASS  =  -3.00    Nose mass-parameter (am)
   estimated Nose-frequenzy (Omega)   =  0.10E-29 period in steps =****** mass=  -0.192E-26a.u.
   SCALEE = 1.0000    scale energy and forces
   NPACO  =    256;   APACO  = 16.0  distance and # of slots for P.C.
   PSTRESS=    0.0 pullay stress

  Mass of Ions in am
   POMASS =  54.94 16.00
  Ionic Valenz
   ZVAL   =   7.00  6.00
  Atomic Wigner-Seitz radii
   RWIGS  =  -1.00 -1.00
  virtual crystal weights 
   VCA    =   1.00  1.00
   NELECT =      76.0000    total number of electrons
   NUPDOWN=      -1.0000    fix difference up-down

 DOS related values:
   EMIN   =  10.00;   EMAX   =-10.00  energy-range for DOS
   EFERMI =   0.00
   ISMEAR =    -5;   SIGMA  =   0.20  broadening in eV -4-tet -1-fermi 0-gaus

 Electronic relaxation 2 (details)
   IALGO  =     38    algorithm
   LDIAG  =      T    sub-space diagonalisation (order eigenvalues)
   LSUBROT=      T    optimize rotation matrix (better conditioning)
   TURBO    =      0    0=normal 1=particle mesh
   IRESTART =      0    0=no restart 2=restart with 2 vectors
   NREBOOT  =      0    no. of reboots
   NMIN     =      0    reboot dimension
   EREF     =   0.00    reference energy to select bands
   IMIX   =      4    mixing-type and parameters
     AMIX     =   0.40;   BMIX     =  1.00
     AMIX_MAG =   1.60;   BMIX_MAG =  1.00
     AMIN     =   0.10
     WC   =   100.;   INIMIX=   1;  MIXPRE=   1;  MAXMIX= -45

 Intra band minimization:
   WEIMIN = 0.0000     energy-eigenvalue tresh-hold
   EBREAK =  0.52E-06  absolut break condition
   DEPER  =   0.30     relativ break condition  

   TIME   =   0.40     timestep for ELM

  volume/ion in A,a.u.               =       9.84        66.39
  Fermi-wavevector in a.u.,A,eV,Ry     =   1.413569  2.671258 27.186844  1.998177
  Thomas-Fermi vector in A             =   2.535201
 
 Write flags
   LWAVE  =      F    write WAVECAR
   LCHARG =      F    write CHGCAR
   LVTOT  =      F    write LOCPOT, total local potential
   LVHAR  =      F    write LOCPOT, Hartree potential only
   LELF   =      F    write electronic localiz. function (ELF)
   LORBIT =      0    0 simple, 1 ext, 2 COOP (PROOUT)


 Dipole corrections
   LMONO  =      F    monopole corrections only (constant potential shift)
   LDIPOL =      F    correct potential (dipole corrections)
   IDIPOL =      0    1-x, 2-y, 3-z, 4-all directions 
   EPSILON=  1.0000000 bulk dielectric constant

 Exchange correlation treatment:
   GGA     =    PS    GGA type
   LEXCH   =    14    internal setting for exchange type
   VOSKOWN=      1    Vosko Wilk Nusair interpolation
   LHFCALC =     F    Hartree Fock is set to
   LHFONE  =     F    Hartree Fock one center treatment
   AEXX    =    0.0000 exact exchange contribution

 Linear response parameters
   LEPSILON=     F    determine dielectric tensor
   LRPA    =     F    only Hartree local field effects (RPA)
   LNABLA  =     F    use nabla operator in PAW spheres
   LVEL    =     F    velocity operator in full k-point grid
   LINTERFAST=   F  fast interpolation
   KINTER  =     0    interpolate to denser k-point grid
   CSHIFT  =0.1000    complex shift for real part using Kramers Kronig
   OMEGAMAX=  -1.0    maximum frequency
   DEG_THRESHOLD= 0.2000000E-02 threshold for treating states as degnerate
   RTIME   =    0.100 relaxation time in fs

 Orbital magnetization related:
   ORBITALMAG=     F  switch on orbital magnetization
   LCHIMAG   =     F  perturbation theory with respect to B field
   DQ        =  0.001000  dq finite difference perturbation B field



--------------------------------------------------------------------------------------------------------


 Static calculation
 charge density and potential will be updated during run
 spin polarized calculation
 Variant of blocked Davidson
 Davidson routine will perform the subspace rotation
 perform sub-space diagonalisation
    after iterative eigenvector-optimisation
 modified Broyden-mixing scheme, WC =      100.0
 initial mixing is a Kerker type mixing with AMIX =  0.4000 and BMIX =      1.0000
 Hartree-type preconditioning will be used
 using additional bands           10
 reciprocal scheme for non local part
 use partial core corrections
 calculate Harris-corrections to forces 
   (improved forces if not selfconsistent)
 use gradient corrections 
 use of overlap-Matrix (Vanderbilt PP)
 Fermi weights with tetrahedron method with Bloechl corrections


--------------------------------------------------------------------------------------------------------


  energy-cutoff  :      520.00
  volume of cell :      118.06
      direct lattice vectors                 reciprocal lattice vectors
     9.161591668  0.000000000  0.000000000     0.109151339  0.000000000  0.000000000
     0.000000000  2.836796584  0.000000000     0.000000000  0.352510295  0.000000000
     0.000000000  0.000000000  4.542428799     0.000000000  0.000000000  0.220146544

  length of vectors
     9.161591668  2.836796584  4.542428799     0.109151339  0.352510295  0.220146544


 
 k-points in units of 2pi/SCALE and weight: Automatic mesh                          
   0.00000000  0.00000000  0.00000000       0.006
   0.03638378  0.00000000  0.00000000       0.012
   0.00000000  0.03916781  0.00000000       0.012
   0.03638378  0.03916781  0.00000000       0.025
   0.00000000  0.07833562  0.00000000       0.012
   0.03638378  0.07833562  0.00000000       0.025
   0.00000000  0.11750343  0.00000000       0.012
   0.03638378  0.11750343  0.00000000       0.025
   0.00000000  0.15667124  0.00000000       0.012
   0.03638378  0.15667124  0.00000000       0.025
   0.00000000  0.00000000  0.03669109       0.012
   0.03638378  0.00000000  0.03669109       0.025
   0.00000000  0.03916781  0.03669109       0.025
   0.03638378  0.03916781  0.03669109       0.049
   0.00000000  0.07833562  0.03669109       0.025
   0.03638378  0.07833562  0.03669109       0.049
   0.00000000  0.11750343  0.03669109       0.025
   0.03638378  0.11750343  0.03669109       0.049
   0.00000000  0.15667124  0.03669109       0.025
   0.03638378  0.15667124  0.03669109       0.049
   0.00000000  0.00000000  0.07338218       0.012
   0.03638378  0.00000000  0.07338218       0.025
   0.00000000  0.03916781  0.07338218       0.025
   0.03638378  0.03916781  0.07338218       0.049
   0.00000000  0.07833562  0.07338218       0.025
   0.03638378  0.07833562  0.07338218       0.049
   0.00000000  0.11750343  0.07338218       0.025
   0.03638378  0.11750343  0.07338218       0.049
   0.00000000  0.15667124  0.07338218       0.025
   0.03638378  0.15667124  0.07338218       0.049
   0.00000000  0.00000000  0.11007327       0.006
   0.03638378  0.00000000  0.11007327       0.012
   0.00000000  0.03916781  0.11007327       0.012
   0.03638378  0.03916781  0.11007327       0.025
   0.00000000  0.07833562  0.11007327       0.012
   0.03638378  0.07833562  0.11007327       0.025
   0.00000000  0.11750343  0.11007327       0.012
   0.03638378  0.11750343  0.11007327       0.025
   0.00000000  0.15667124  0.11007327       0.012
   0.03638378  0.15667124  0.11007327       0.025
 
 k-points in reciprocal lattice and weights: Automatic mesh                          
   0.00000000  0.00000000  0.00000000       0.006
   0.33333333  0.00000000  0.00000000       0.012
   0.00000000  0.11111111  0.00000000       0.012
   0.33333333  0.11111111  0.00000000       0.025
   0.00000000  0.22222222  0.00000000       0.012
   0.33333333  0.22222222  0.00000000       0.025
   0.00000000  0.33333333  0.00000000       0.012
   0.33333333  0.33333333  0.00000000       0.025
   0.00000000  0.44444444  0.00000000       0.012
   0.33333333  0.44444444  0.00000000       0.025
   0.00000000  0.00000000  0.16666667       0.012
   0.33333333  0.00000000  0.16666667       0.025
   0.00000000  0.11111111  0.16666667       0.025
   0.33333333  0.11111111  0.16666667       0.049
   0.00000000  0.22222222  0.16666667       0.025
   0.33333333  0.22222222  0.16666667       0.049
   0.00000000  0.33333333  0.16666667       0.025
   0.33333333  0.33333333  0.16666667       0.049
   0.00000000  0.44444444  0.16666667       0.025
   0.33333333  0.44444444  0.16666667       0.049
   0.00000000  0.00000000  0.33333333       0.012
   0.33333333  0.00000000  0.33333333       0.025
   0.00000000  0.11111111  0.33333333       0.025
   0.33333333  0.11111111  0.33333333       0.049
   0.00000000  0.22222222  0.33333333       0.025
   0.33333333  0.22222222  0.33333333       0.049
   0.00000000  0.33333333  0.33333333       0.025
   0.33333333  0.33333333  0.33333333       0.049
   0.00000000  0.44444444  0.33333333       0.025
   0.33333333  0.44444444  0.33333333       0.049
   0.00000000  0.00000000  0.50000000       0.006
   0.33333333  0.00000000  0.50000000       0.012
   0.00000000  0.11111111  0.50000000       0.012
   0.33333333  0.11111111  0.50000000       0.025
   0.00000000  0.22222222  0.50000000       0.012
   0.33333333  0.22222222  0.50000000       0.025
   0.00000000  0.33333333  0.50000000       0.012
   0.33333333  0.33333333  0.50000000       0.025
   0.00000000  0.44444444  0.50000000       0.012
   0.33333333  0.44444444  0.50000000       0.025
 
 position of ions in fractional coordinates (direct lattice) 
   0.13580166  0.25000000  0.03363191
   0.63580166  0.25000000  0.46636809
   0.86419834  0.75000000  0.96636809
   0.36419834  0.75000000  0.53363191
   0.27729185  0.25000000  0.32551468
   0.77729185  0.25000000  0.17448532
   0.72270815  0.75000000  0.67448532
   0.22270815  0.75000000  0.82551468
   0.46721586  0.25000000  0.71251969
   0.96721586  0.25000000  0.78748031
   0.53278414  0.75000000  0.28748031
   0.03278414  0.75000000  0.21251969
 
 position of ions in cartesian coordinates  (Angst):
   1.24415936  0.70919915  0.15277056
   5.82495519  0.70919915  2.11844384
   7.91743231  2.12759744  4.38965824
   3.33663648  2.12759744  2.42398496
   2.54043466  0.70919915  1.47862727
   7.12123049  0.70919915  0.79258712
   6.62115701  2.12759744  3.06380152
   2.04036118  2.12759744  3.74984167
   4.28044090  0.70919915  3.23656997
   8.86123674  0.70919915  3.57707323
   4.88115076  2.12759744  1.30585883
   0.30035493  2.12759744  0.96535557
 


--------------------------------------------------------------------------------------------------------


 k-point  1 :   0.0000 0.0000 0.0000  plane waves:    3185
 k-point  2 :   0.3333 0.0000 0.0000  plane waves:    3174
 k-point  3 :   0.0000 0.1111 0.0000  plane waves:    3177
 k-point  4 :   0.3333 0.1111 0.0000  plane waves:    3190
 k-point  5 :   0.0000 0.2222 0.0000  plane waves:    3167
 k-point  6 :   0.3333 0.2222 0.0000  plane waves:    3183
 k-point  7 :   0.0000 0.3333 0.0000  plane waves:    3174
 k-point  8 :   0.3333 0.3333 0.0000  plane waves:    3185
 k-point  9 :   0.0000 0.4444 0.0000  plane waves:    3190
 k-point 10 :   0.3333 0.4444 0.0000  plane waves:    3203
 k-point 11 :   0.0000 0.0000 0.1667  plane waves:    3183
 k-point 12 :   0.3333 0.0000 0.1667  plane waves:    3188
 k-point 13 :   0.0000 0.1111 0.1667  plane waves:    3178
 k-point 14 :   0.3333 0.1111 0.1667  plane waves:    3181
 k-point 15 :   0.0000 0.2222 0.1667  plane waves:    3172
 k-point 16 :   0.3333 0.2222 0.1667  plane waves:    3182
 k-point 17 :   0.0000 0.3333 0.1667  plane waves:    3167
 k-point 18 :   0.3333 0.3333 0.1667  plane waves:    3182
 k-point 19 :   0.0000 0.4444 0.1667  plane waves:    3180
 k-point 20 :   0.3333 0.4444 0.1667  plane waves:    3195
 k-point 21 :   0.0000 0.0000 0.3333  plane waves:    3175
 k-point 22 :   0.3333 0.0000 0.3333  plane waves:    3195
 k-point 23 :   0.0000 0.1111 0.3333  plane waves:    3181
 k-point 24 :   0.3333 0.1111 0.3333  plane waves:    3179
 k-point 25 :   0.0000 0.2222 0.3333  plane waves:    3178
 k-point 26 :   0.3333 0.2222 0.3333  plane waves:    3173
 k-point 27 :   0.0000 0.3333 0.3333  plane waves:    3182
 k-point 28 :   0.3333 0.3333 0.3333  plane waves:    3172
 k-point 29 :   0.0000 0.4444 0.3333  plane waves:    3186
 k-point 30 :   0.3333 0.4444 0.3333  plane waves:    3170
 k-point 31 :   0.0000 0.0000 0.5000  plane waves:    3172
 k-point 32 :   0.3333 0.0000 0.5000  plane waves:    3192
 k-point 33 :   0.0000 0.1111 0.5000  plane waves:    3184
 k-point 34 :   0.3333 0.1111 0.5000  plane waves:    3180
 k-point 35 :   0.0000 0.2222 0.5000  plane waves:    3180
 k-point 36 :   0.3333 0.2222 0.5000  plane waves:    3172
 k-point 37 :   0.0000 0.3333 0.5000  plane waves:    3166
 k-point 38 :   0.3333 0.3333 0.5000  plane waves:    3168
 k-point 39 :   0.0000 0.4444 0.5000  plane waves:    3146
 k-point 40 :   0.3333 0.4444 0.5000  plane waves:    3156

 maximum and minimum number of plane-waves per node :       835      766

 maximum number of plane-waves:      3203
 maximum index in each direction: 
   IXMAX=   17   IYMAX=    5   IZMAX=    8
   IXMIN=  -17   IYMIN=   -5   IZMIN=   -8

 WARNING: aliasing errors must be expected set NGX to  70 to avoid them
 WARNING: aliasing errors must be expected set NGY to  22 to avoid them
 WARNING: aliasing errors must be expected set NGZ to  34 to avoid them
 aliasing errors are usually negligible using standard VASP settings
 and one can safely disregard these warnings

 parallel 3D FFT for wavefunctions:
    minimum data exchange during FFTs selected (reduces bandwidth)
 parallel 3D FFT for charge:
    minimum data exchange during FFTs selected (reduces bandwidth)


 total amount of memory used by VASP on root node    48225. kBytes
========================================================================

   base      :      30000. kBytes
   nonl-proj :       9838. kBytes
   fftplans  :        438. kBytes
   grid      :       1098. kBytes
   one-center:         93. kBytes
   wavefun   :       6758. kBytes
 
 Broyden mixing: mesh for mixing (old mesh)
   NGX = 35   NGY = 11   NGZ = 17
  (NGX  =108   NGY  = 32   NGZ  = 56)
  gives a total of   6545 points

 initial charge density was supplied:
 charge density of overlapping atoms calculated
 number of electron      76.0000000 magnetization       0.0000000
 keeping initial charge density in first step


--------------------------------------------------------------------------------------------------------


 Maximum index for augmentation-charges          435 (set IRDMAX)


--------------------------------------------------------------------------------------------------------


 First call to EWALD:  gamma=   0.361
 Maximum number of real-space cells 2x 4x 3
 Maximum number of reciprocal cells 5x 2x 3

 FEWALD executed in parallel
    FEWALD:  cpu time    0.00: real time    0.00


----------------------------------------- Iteration    1(   1)  ---------------------------------------


    POTLOK:  cpu time    0.01: real time    0.02
    SETDIJ:  cpu time    0.00: real time    0.01
     EDDAV:  cpu time    1.63: real time    1.63
 BZINTS: Fermi energy: 23.986095; 76.000000 electrons
         Band energy: 884.540567;  BLOECHL correction: -0.103729
       DOS:  cpu time    0.06: real time    0.06
    --------------------------------------------
      LOOP:  cpu time    1.71: real time    1.76

 eigenvalue-minimisations  :  7680
 total energy-change (2. order) : 0.1072720E+04  (-0.3408980E+04)
 number of electron      76.0000000 magnetization       0.0000000
 augmentation part       76.0000000 magnetization       0.0000000

 Free energy of the ion-electron system (eV)
  ---------------------------------------------------
  alpha Z        PSCENC =       322.36023216
  Ewald energy   TEWEN  =     -4154.24390308
  -1/2 Hartree   DENC   =     -1323.18583370
  -exchange  EXHF       =         0.00000000
  -V(xc)+E(xc)   XCENC  =       186.40023475
  PAW double counting   =      4385.75833043    -4339.47960987
  entropy T*S    EENTRO =         0.00000000
  eigenvalues    EBANDS =       884.54056731
  atomic energy  EATOM  =      5110.57042958
  ---------------------------------------------------
  free energy    TOTEN  =      1072.72044760 eV

  energy without entropy =     1072.72044760  energy(sigma->0) =     1072.72044760


--------------------------------------------------------------------------------------------------------




----------------------------------------- Iteration    1(   2)  ---------------------------------------


     EDDAV:  cpu time    1.64: real time    1.64
 BZINTS: Fermi energy:  9.600119; 76.000000 electrons
         Band energy: -66.500443;  BLOECHL correction: -0.100040
       DOS:  cpu time    0.06: real time    0.06
    --------------------------------------------
      LOOP:  cpu time    1.71: real time    1.78

 eigenvalue-minimisations  :  7832
 total energy-change (2. order) :-0.9510410E+03  (-0.9042104E+03)
 number of electron      76.0000000 magnetization       0.0000000
 augmentation part       76.0000000 magnetization       0.0000000

 Free energy of the ion-electron system (eV)
  ---------------------------------------------------
  alpha Z        PSCENC =       322.36023216
  Ewald energy   TEWEN  =     -4154.24390308
  -1/2 Hartree   DENC   =     -1323.18583370
  -exchange  EXHF       =         0.00000000
  -V(xc)+E(xc)   XCENC  =       186.40023475
  PAW double counting   =      4385.75833043    -4339.47960987
  entropy T*S    EENTRO =         0.00000000
  eigenvalues    EBANDS =       -66.50044293
  atomic energy  EATOM  =      5110.57042958
  ---------------------------------------------------
  free energy    TOTEN  =       121.67943735 eV

  energy without entropy =      121.67943735  energy(sigma->0) =      121.67943735


--------------------------------------------------------------------------------------------------------




----------------------------------------- Iteration    1(   3)  ---------------------------------------


     EDDAV:  cpu time    2.21: real time    2.21
 BZINTS: Fermi energy:  7.344868; 76.000000 electrons
         Band energy:-295.298482;  BLOECHL correction: -0.038243
       DOS:  cpu time    0.06: real time    0.06
    --------------------------------------------
      LOOP:  cpu time    2.27: real time    2.34

 eigenvalue-minimisations  : 11520
 total energy-change (2. order) :-0.2287980E+03  (-0.2166223E+03)
 number of electron      76.0000000 magnetization       0.0000000
 augmentation part       76.0000000 magnetization       0.0000000

 Free energy of the ion-electron system (eV)
  ---------------------------------------------------
  alpha Z        PSCENC =       322.36023216
  Ewald energy   TEWEN  =     -4154.24390308
  -1/2 Hartree   DENC   =     -1323.18583370
  -exchange  EXHF       =         0.00000000
  -V(xc)+E(xc)   XCENC  =       186.40023475
  PAW double counting   =      4385.75833043    -4339.47960987
  entropy T*S    EENTRO =         0.00000000
  eigenvalues    EBANDS =      -295.29848219
  atomic energy  EATOM  =      5110.57042958
  ---------------------------------------------------
  free energy    TOTEN  =      -107.11860191 eV

  energy without entropy =     -107.11860191  energy(sigma->0) =     -107.11860191


--------------------------------------------------------------------------------------------------------




----------------------------------------- Iteration    1(   4)  ---------------------------------------


     EDDAV:  cpu time    2.37: real time    2.37
 BZINTS: Fermi energy:  6.031674; 76.000000 electrons
         Band energy:-318.343152;  BLOECHL correction:  0.000000
       DOS:  cpu time    0.01: real time    0.01
    --------------------------------------------
      LOOP:  cpu time    2.39: real time    2.67

 eigenvalue-minimisations  : 12704
 total energy-change (2. order) :-0.2304467E+02  (-0.2220338E+02)
 number of electron      76.0000000 magnetization       0.0000000
 augmentation part       76.0000000 magnetization       0.0000000

 Free energy of the ion-electron system (eV)
  ---------------------------------------------------
  alpha Z        PSCENC =       322.36023216
  Ewald energy   TEWEN  =     -4154.24390308
  -1/2 Hartree   DENC   =     -1323.18583370
  -exchange  EXHF       =         0.00000000
  -V(xc)+E(xc)   XCENC  =       186.40023475
  PAW double counting   =      4385.75833043    -4339.47960987
  entropy T*S    EENTRO =         0.00000000
  eigenvalues    EBANDS =      -318.34315194
  atomic energy  EATOM  =      5110.57042958
  ---------------------------------------------------
  free energy    TOTEN  =      -130.16327166 eV

  energy without entropy =     -130.16327166  energy(sigma->0) =     -130.16327166


--------------------------------------------------------------------------------------------------------




----------------------------------------- Iteration    1(   5)  ---------------------------------------


     EDDAV:  cpu time    2.24: real time    2.24
 BZINTS: Fermi energy:  6.022246; 76.000000 electrons
         Band energy:-319.072916;  BLOECHL correction:  0.000000
       DOS:  cpu time    0.01: real time    0.01
    CHARGE:  cpu time    0.06: real time    0.06
    MIXING:  cpu time    0.00: real time    0.00
    --------------------------------------------
      LOOP:  cpu time    2.31: real time    2.41

 eigenvalue-minimisations  : 11824
 total energy-change (2. order) :-0.7297642E+00  (-0.7197963E+00)
 number of electron      76.0000073 magnetization       0.0000000
 augmentation part       15.0381120 magnetization       0.0000000

 Broyden mixing:
  rms(total) = 0.57681E+01    rms(broyden)= 0.57678E+01
  rms(prec ) = 0.68529E+01
  weight for this iteration     100.00

 Free energy of the ion-electron system (eV)
  ---------------------------------------------------
  alpha Z        PSCENC =       322.36023216
  Ewald energy   TEWEN  =     -4154.24390308
  -1/2 Hartree   DENC   =     -1323.18583370
  -exchange  EXHF       =         0.00000000
  -V(xc)+E(xc)   XCENC  =       186.40023475
  PAW double counting   =      4385.75833043    -4339.47960987
  entropy T*S    EENTRO =         0.00000000
  eigenvalues    EBANDS =      -319.07291611
  atomic energy  EATOM  =      5110.57042958
  ---------------------------------------------------
  free energy    TOTEN  =      -130.89303583 eV

  energy without entropy =     -130.89303583  energy(sigma->0) =     -130.89303583


--------------------------------------------------------------------------------------------------------




----------------------------------------- Iteration    1(   6)  ---------------------------------------


    POTLOK:  cpu time    0.01: real time    0.01
    SETDIJ:  cpu time    0.00: real time    0.01
     EDDAV:  cpu time    2.27: real time    2.27
 BZINTS: Fermi energy:  2.450025; 76.000000 electrons
         Band energy:-294.528641;  BLOECHL correction: -0.065207
       DOS:  cpu time    0.06: real time    0.06
    CHARGE:  cpu time    0.06: real time    0.06
    MIXING:  cpu time    0.00: real time    0.00
    --------------------------------------------
      LOOP:  cpu time    2.41: real time    2.48

 eigenvalue-minimisations  : 12096
 total energy-change (2. order) : 0.5374253E+01  (-0.3286736E+02)
 number of electron      76.0000029 magnetization       0.0000000
 augmentation part       23.8119080 magnetization       0.0000000

 Broyden mixing:
  rms(total) = 0.80956E+01    rms(broyden)= 0.80950E+01
  rms(prec ) = 0.10036E+02
  weight for this iteration     100.00

 eigenvalues of (default mixing * dielectric matrix)
  average eigenvalue GAMMA=   0.2732
  0.2732

 Free energy of the ion-electron system (eV)
  ---------------------------------------------------
  alpha Z        PSCENC =       322.36023216
  Ewald energy   TEWEN  =     -4154.24390308
  -1/2 Hartree   DENC   =     -1358.90934030
  -exchange  EXHF       =         0.00000000
  -V(xc)+E(xc)   XCENC  =       193.40417800
  PAW double counting   =      5246.60043451    -5190.77217310
  entropy T*S    EENTRO =         0.00000000
  eigenvalues    EBANDS =      -294.52864060
  atomic energy  EATOM  =      5110.57042958
  ---------------------------------------------------
  free energy    TOTEN  =      -125.51878282 eV

  energy without entropy =     -125.51878282  energy(sigma->0) =     -125.51878282


--------------------------------------------------------------------------------------------------------




----------------------------------------- Iteration    1(   7)  ---------------------------------------


    POTLOK:  cpu time    0.01: real time    0.01
    SETDIJ:  cpu time    0.00: real time    0.01
     EDDAV:  cpu time    2.68: real time    2.68
 BZINTS: Fermi energy:  4.502149; 76.000000 electrons
         Band energy:-256.780531;  BLOECHL correction:  0.000000
       DOS:  cpu time    0.01: real time    0.01
    CHARGE:  cpu time    0.06: real time    0.06
    MIXING:  cpu time    0.00: real time    0.00
    --------------------------------------------
      LOOP:  cpu time    2.77: real time    2.85

 eigenvalue-minimisations  : 14512
 total energy-change (2. order) : 0.2308638E+02  (-0.2329921E+02)
 number of electron      76.0000051 magnetization       0.0000000
 augmentation part       15.7578657 magnetization       0.0000000

 Broyden mixing:
  rms(total) = 0.24333E+01    rms(broyden)= 0.24325E+01
  rms(prec ) = 0.28302E+01
  weight for this iteration     100.00

 eigenvalues of (default mixing * dielectric matrix)
  average eigenvalue GAMMA=   0.6949
  1.1042  0.2856

 Free energy of the ion-electron system (eV)
  ---------------------------------------------------
  alpha Z        PSCENC =       322.36023216
  Ewald energy   TEWEN  =     -4154.24390308
  -1/2 Hartree   DENC   =     -1354.20796345
  -exchange  EXHF       =         0.00000000
  -V(xc)+E(xc)   XCENC  =       186.40872278
  PAW double counting   =      5526.94965896    -5483.48904851
  entropy T*S    EENTRO =         0.00000000
  eigenvalues    EBANDS =      -256.78053124
  atomic energy  EATOM  =      5110.57042958
  ---------------------------------------------------
  free energy    TOTEN  =      -102.43240280 eV

  energy without entropy =     -102.43240280  energy(sigma->0) =     -102.43240280


--------------------------------------------------------------------------------------------------------




----------------------------------------- Iteration    1(   8)  ---------------------------------------


    POTLOK:  cpu time    0.01: real time    0.01
    SETDIJ:  cpu time    0.00: real time    0.01
     EDDAV:  cpu time    2.28: real time    2.28
 BZINTS: Fermi energy:  3.321759; 76.000000 electrons
         Band energy:-283.750330;  BLOECHL correction:  0.000000
       DOS:  cpu time    0.01: real time    0.01
    CHARGE:  cpu time    0.06: real time    0.06
    MIXING:  cpu time    0.00: real time    0.00
    --------------------------------------------
      LOOP:  cpu time    2.37: real time    2.45

 eigenvalue-minimisations  : 12136
 total energy-change (2. order) : 0.1264361E+01  (-0.2418015E+01)
 number of electron      76.0000050 magnetization       0.0000000
 augmentation part       16.9641857 magnetization       0.0000000

 Broyden mixing:
  rms(total) = 0.11059E+01    rms(broyden)= 0.11058E+01
  rms(prec ) = 0.12951E+01
  weight for this iteration     100.00

 eigenvalues of (default mixing * dielectric matrix)
  average eigenvalue GAMMA=   0.8610
  1.6529  0.3064  0.6235

 Free energy of the ion-electron system (eV)
  ---------------------------------------------------
  alpha Z        PSCENC =       322.36023216
  Ewald energy   TEWEN  =     -4154.24390308
  -1/2 Hartree   DENC   =     -1327.02960115
  -exchange  EXHF       =         0.00000000
  -V(xc)+E(xc)   XCENC  =       188.49014373
  PAW double counting   =      6157.10893473    -6114.67394768
  entropy T*S    EENTRO =         0.00000000
  eigenvalues    EBANDS =      -283.75033007
  atomic energy  EATOM  =      5110.57042958
  ---------------------------------------------------
  free energy    TOTEN  =      -101.16804177 eV

  energy without entropy =     -101.16804177  energy(sigma->0) =     -101.16804177


--------------------------------------------------------------------------------------------------------




----------------------------------------- Iteration    1(   9)  ---------------------------------------


    POTLOK:  cpu time    0.01: real time    0.01
    SETDIJ:  cpu time    0.01: real time    0.01
     EDDAV:  cpu time    2.61: real time    2.61
 BZINTS: Fermi energy:  2.967399; 76.000000 electrons
         Band energy:-280.046064;  BLOECHL correction:  0.000000
       DOS:  cpu time    0.01: real time    0.01
    CHARGE:  cpu time    0.06: real time    0.06
    MIXING:  cpu time    0.00: real time    0.00
    --------------------------------------------
      LOOP:  cpu time    2.70: real time    2.80

 eigenvalue-minimisations  : 14136
 total energy-change (2. order) : 0.4786871E+00  (-0.3589372E+00)
 number of electron      76.0000046 magnetization      -0.0000000
 augmentation part       17.5864669 magnetization      -0.0000000

 Broyden mixing:
  rms(total) = 0.23637E+00    rms(broyden)= 0.23624E+00
  rms(prec ) = 0.27808E+00
  weight for this iteration     100.00

 eigenvalues of (default mixing * dielectric matrix)
  average eigenvalue GAMMA=   0.9545
  1.9281  0.9807  0.3101  0.5991

 Free energy of the ion-electron system (eV)
  ---------------------------------------------------
  alpha Z        PSCENC =       322.36023216
  Ewald energy   TEWEN  =     -4154.24390308
  -1/2 Hartree   DENC   =     -1330.59409085
  -exchange  EXHF       =         0.00000000
  -V(xc)+E(xc)   XCENC  =       189.69026444
  PAW double counting   =      6490.84013619    -6449.26635872
  entropy T*S    EENTRO =         0.00000000
  eigenvalues    EBANDS =      -280.04606440
  atomic energy  EATOM  =      5110.57042958
  ---------------------------------------------------
  free energy    TOTEN  =      -100.68935466 eV

  energy without entropy =     -100.68935466  energy(sigma->0) =     -100.68935466


--------------------------------------------------------------------------------------------------------




----------------------------------------- Iteration    1(  10)  ---------------------------------------


    POTLOK:  cpu time    0.01: real time    0.01
    SETDIJ:  cpu time    0.00: real time    0.01
     EDDAV:  cpu time    2.23: real time    2.23
 BZINTS: Fermi energy:  3.140966; 76.000000 electrons
         Band energy:-276.022358;  BLOECHL correction:  0.000000
       DOS:  cpu time    0.01: real time    0.01
    CHARGE:  cpu time    0.06: real time    0.06
    MIXING:  cpu time    0.00: real time    0.00
    --------------------------------------------
      LOOP:  cpu time    2.32: real time    2.38

 eigenvalue-minimisations  : 11800
 total energy-change (2. order) : 0.2636302E-02  (-0.3976027E-01)
 number of electron      76.0000047 magnetization      -0.0000000
 augmentation part       17.4247406 magnetization      -0.0000000

 Broyden mixing:
  rms(total) = 0.14920E+00    rms(broyden)= 0.14919E+00
  rms(prec ) = 0.15665E+00
  weight for this iteration     100.00

 eigenvalues of (default mixing * dielectric matrix)
  average eigenvalue GAMMA=   0.9410
  2.0219  0.3100  0.8648  0.8648  0.6433

 Free energy of the ion-electron system (eV)
  ---------------------------------------------------
  alpha Z        PSCENC =       322.36023216
  Ewald energy   TEWEN  =     -4154.24390308
  -1/2 Hartree   DENC   =     -1333.67267779
  -exchange  EXHF       =         0.00000000
  -V(xc)+E(xc)   XCENC  =       190.08631791
  PAW double counting   =      6568.28609063    -6528.05085019
  entropy T*S    EENTRO =         0.00000000
  eigenvalues    EBANDS =      -276.02235759
  atomic energy  EATOM  =      5110.57042958
  ---------------------------------------------------
  free energy    TOTEN  =      -100.68671836 eV

  energy without entropy =     -100.68671836  energy(sigma->0) =     -100.68671836


--------------------------------------------------------------------------------------------------------




----------------------------------------- Iteration    1(  11)  ---------------------------------------


    POTLOK:  cpu time    0.01: real time    0.01
    SETDIJ:  cpu time    0.00: real time    0.01
     EDDAV:  cpu time    2.28: real time    2.28
 BZINTS: Fermi energy:  3.132573; 76.000000 electrons
         Band energy:-275.929525;  BLOECHL correction:  0.000000
       DOS:  cpu time    0.01: real time    0.01
    CHARGE:  cpu time    0.06: real time    0.06
    MIXING:  cpu time    0.00: real time    0.00
    --------------------------------------------
      LOOP:  cpu time    2.36: real time    2.44

 eigenvalue-minimisations  : 11944
 total energy-change (2. order) : 0.1073915E-02  (-0.1140366E-02)
 number of electron      76.0000047 magnetization       0.0000000
 augmentation part       17.4410458 magnetization       0.0000000

 Broyden mixing:
  rms(total) = 0.65715E-01    rms(broyden)= 0.65713E-01
  rms(prec ) = 0.78208E-01
  weight for this iteration     100.00

 eigenvalues of (default mixing * dielectric matrix)
  average eigenvalue GAMMA=   0.9979
  2.2071  0.3101  1.2009  0.9677  0.6509  0.6509

 Free energy of the ion-electron system (eV)
  ---------------------------------------------------
  alpha Z        PSCENC =       322.36023216
  Ewald energy   TEWEN  =     -4154.24390308
  -1/2 Hartree   DENC   =     -1333.32376554
  -exchange  EXHF       =         0.00000000
  -V(xc)+E(xc)   XCENC  =       189.93241220
  PAW double counting   =      6619.57539401    -6579.62691856
  entropy T*S    EENTRO =         0.00000000
  eigenvalues    EBANDS =      -275.92952522
  atomic energy  EATOM  =      5110.57042958
  ---------------------------------------------------
  free energy    TOTEN  =      -100.68564444 eV

  energy without entropy =     -100.68564444  energy(sigma->0) =     -100.68564444


--------------------------------------------------------------------------------------------------------




----------------------------------------- Iteration    1(  12)  ---------------------------------------


    POTLOK:  cpu time    0.01: real time    0.01
    SETDIJ:  cpu time    0.00: real time    0.01
     EDDAV:  cpu time    2.43: real time    2.43
 BZINTS: Fermi energy:  3.158553; 76.000000 electrons
         Band energy:-274.964393;  BLOECHL correction:  0.000000
       DOS:  cpu time    0.01: real time    0.01
    CHARGE:  cpu time    0.06: real time    0.06
    MIXING:  cpu time    0.00: real time    0.00
    --------------------------------------------
      LOOP:  cpu time    2.52: real time    2.65

 eigenvalue-minimisations  : 12824
 total energy-change (2. order) : 0.2717286E-02  (-0.1212407E-02)
 number of electron      76.0000047 magnetization       0.0000000
 augmentation part       17.4019531 magnetization       0.0000000

 Broyden mixing:
  rms(total) = 0.25472E-01    rms(broyden)= 0.25469E-01
  rms(prec ) = 0.26658E-01
  weight for this iteration     100.00

 eigenvalues of (default mixing * dielectric matrix)
  average eigenvalue GAMMA=   1.0659
  2.0754  1.9323  0.3101  0.9420  0.9420  0.6225  0.6368

 Free energy of the ion-electron system (eV)
  ---------------------------------------------------
  alpha Z        PSCENC =       322.36023216
  Ewald energy   TEWEN  =     -4154.24390308
  -1/2 Hartree   DENC   =     -1333.88492388
  -exchange  EXHF       =         0.00000000
  -V(xc)+E(xc)   XCENC  =       190.00054597
  PAW double counting   =      6646.94879768    -6607.46971210
  entropy T*S    EENTRO =         0.00000000
  eigenvalues    EBANDS =      -274.96439349
  atomic energy  EATOM  =      5110.57042958
  ---------------------------------------------------
  free energy    TOTEN  =      -100.68292716 eV

  energy without entropy =     -100.68292716  energy(sigma->0) =     -100.68292716


--------------------------------------------------------------------------------------------------------




----------------------------------------- Iteration    1(  13)  ---------------------------------------


    POTLOK:  cpu time    0.01: real time    0.01
    SETDIJ:  cpu time    0.01: real time    0.01
     EDDAV:  cpu time    2.48: real time    2.48
 BZINTS: Fermi energy:  3.167233; 76.000000 electrons
         Band energy:-274.599890;  BLOECHL correction:  0.000000
       DOS:  cpu time    0.01: real time    0.01
    CHARGE:  cpu time    0.06: real time    0.06
    MIXING:  cpu time    0.00: real time    0.00
    --------------------------------------------
      LOOP:  cpu time    2.57: real time    2.66

 eigenvalue-minimisations  : 13152
 total energy-change (2. order) :-0.2553963E-03  (-0.2833359E-03)
 number of electron      76.0000047 magnetization      -0.0000000
 augmentation part       17.3867888 magnetization      -0.0000000

 Broyden mixing:
  rms(total) = 0.18460E-01    rms(broyden)= 0.18457E-01
  rms(prec ) = 0.24569E-01
  weight for this iteration     100.00

 eigenvalues of (default mixing * dielectric matrix)
  average eigenvalue GAMMA=   1.0461
  2.1864  2.0234  0.3101  0.9524  0.9524  0.7180  0.6131  0.6131

 Free energy of the ion-electron system (eV)
  ---------------------------------------------------
  alpha Z        PSCENC =       322.36023216
  Ewald energy   TEWEN  =     -4154.24390308
  -1/2 Hartree   DENC   =     -1334.18585659
  -exchange  EXHF       =         0.00000000
  -V(xc)+E(xc)   XCENC  =       189.94398777
  PAW double counting   =      6644.57925848    -6605.10744080
  entropy T*S    EENTRO =         0.00000000
  eigenvalues    EBANDS =      -274.59989008
  atomic energy  EATOM  =      5110.57042958
  ---------------------------------------------------
  free energy    TOTEN  =      -100.68318255 eV

  energy without entropy =     -100.68318255  energy(sigma->0) =     -100.68318255


--------------------------------------------------------------------------------------------------------




----------------------------------------- Iteration    1(  14)  ---------------------------------------


    POTLOK:  cpu time    0.01: real time    0.01
    SETDIJ:  cpu time    0.01: real time    0.01
     EDDAV:  cpu time    1.64: real time    1.64
 BZINTS: Fermi energy:  3.167903; 76.000000 electrons
         Band energy:-274.427646;  BLOECHL correction:  0.000000
       DOS:  cpu time    0.01: real time    0.01
    CHARGE:  cpu time    0.06: real time    0.06
    MIXING:  cpu time    0.00: real time    0.00
    --------------------------------------------
      LOOP:  cpu time    1.73: real time    1.80

 eigenvalue-minimisations  :  7448
 total energy-change (2. order) : 0.2880276E-03  (-0.3528012E-04)
 number of electron      76.0000047 magnetization      -0.0000000
 augmentation part       17.3934621 magnetization      -0.0000000

 Broyden mixing:
  rms(total) = 0.12284E-01    rms(broyden)= 0.12284E-01
  rms(prec ) = 0.14934E-01
  weight for this iteration     100.00

 eigenvalues of (default mixing * dielectric matrix)
  average eigenvalue GAMMA=   1.0645
  2.2258  2.2258  1.0752  1.0752  0.3101  0.6669  0.6669  0.7196  0.6145

 Free energy of the ion-electron system (eV)
  ---------------------------------------------------
  alpha Z        PSCENC =       322.36023216
  Ewald energy   TEWEN  =     -4154.24390308
  -1/2 Hartree   DENC   =     -1334.36423019
  -exchange  EXHF       =         0.00000000
  -V(xc)+E(xc)   XCENC  =       189.95571494
  PAW double counting   =      6645.79737141    -6606.33086298
  entropy T*S    EENTRO =         0.00000000
  eigenvalues    EBANDS =      -274.42764636
  atomic energy  EATOM  =      5110.57042958
  ---------------------------------------------------
  free energy    TOTEN  =      -100.68289453 eV

  energy without entropy =     -100.68289453  energy(sigma->0) =     -100.68289453


--------------------------------------------------------------------------------------------------------




----------------------------------------- Iteration    1(  15)  ---------------------------------------


    POTLOK:  cpu time    0.01: real time    0.01
    SETDIJ:  cpu time    0.00: real time    0.01
     EDDAV:  cpu time    1.58: real time    1.58
 BZINTS: Fermi energy:  3.169860; 76.000000 electrons
         Band energy:-274.225228;  BLOECHL correction:  0.000000
       DOS:  cpu time    0.01: real time    0.01
    --------------------------------------------
      LOOP:  cpu time    1.61: real time    1.69

 eigenvalue-minimisations  :  7160
 total energy-change (2. order) : 0.1060739E-04  (-0.5857709E-04)
 number of electron      76.0000047 magnetization      -0.0000000
 augmentation part       17.3934621 magnetization      -0.0000000

 Free energy of the ion-electron system (eV)
  ---------------------------------------------------
  alpha Z        PSCENC =       322.36023216
  Ewald energy   TEWEN  =     -4154.24390308
  -1/2 Hartree   DENC   =     -1334.60146436
  -exchange  EXHF       =         0.00000000
  -V(xc)+E(xc)   XCENC  =       189.98267298
  PAW double counting   =      6644.58765433    -6605.11327775
  entropy T*S    EENTRO =         0.00000000
  eigenvalues    EBANDS =      -274.22522779
  atomic energy  EATOM  =      5110.57042958
  ---------------------------------------------------
  free energy    TOTEN  =      -100.68288392 eV

  energy without entropy =     -100.68288392  energy(sigma->0) =     -100.68288392


--------------------------------------------------------------------------------------------------------




 average (electrostatic) potential at core
  the test charge radii are     1.0210  0.7215
  (the norm of the test charge is              1.0000)
       1 -47.3112       2 -47.3112       3 -47.3112       4 -47.3112       5 -72.1119
       6 -72.1119       7 -72.1119       8 -72.1119       9 -72.1151      10 -72.1151
      11 -72.1151      12 -72.1151
 
 
 
 E-fermi :   3.1699     XC(G=0): -11.6022     alpha+bet :-10.8039


 spin component 1

 k-point   1 :       0.0000    0.0000    0.0000
  band No.  band energies     occupation 
      1     -16.7033      1.00000
      2     -16.0160      1.00000
      3     -15.8011      1.00000
      4     -14.9158      1.00000
      5     -14.6535      1.00000
      6     -14.6218      1.00000
      7     -14.4309      1.00000
      8     -14.4205      1.00000
      9      -4.2591      1.00000
     10      -3.6466      1.00000
     11      -3.3957      1.00000
     12      -3.2073      1.00000
     13      -2.5888      1.00000
     14      -2.5354      1.00000
     15      -2.5185      1.00000
     16      -2.4790      1.00000
     17      -2.1496      1.00000
     18      -1.9635      1.00000
     19      -1.7538      1.00000
     20      -1.4964      1.00000
     21      -1.0276      1.00000
     22      -0.4886      1.00000
     23      -0.4195      1.00000
     24      -0.1508      1.00000
     25      -0.1085      1.00000
     26       0.3444      1.00000
     27       0.5367      1.00000
     28       1.1089      1.00000
     29       1.3059      1.00000
     30       1.4123      1.00000
     31       1.4148      1.00000
     32       1.6707      1.00000
     33       1.6841      1.00000
     34       2.1734      1.00000
     35       2.1799      1.00000
     36       2.2658      1.00000
     37       2.3161      1.00000
     38       2.6432      1.00000
     39       3.6977      0.00000
     40       4.0180      0.00000
     41       4.0694      0.00000
     42       4.5150      0.00000
     43       4.7707      0.00000
     44       4.9757      0.00000
     45       5.1662      0.00000
     46       5.3799      0.00000
     47       5.7534      0.00000
     48       6.2867      0.00000

 k-point   2 :       0.3333    0.0000    0.0000
  band No.  band energies     occupation 
      1     -16.6064      1.00000
      2     -16.3331      1.00000
      3     -15.4378      1.00000
      4     -15.0665      1.00000
      5     -14.6475      1.00000
      6     -14.6314      1.00000
      7     -14.4244      1.00000
      8     -14.4181      1.00000
      9      -4.0499      1.00000
     10      -3.7104      1.00000
     11      -3.3770      1.00000
     12      -3.2719      1.00000
     13      -2.7751      1.00000
     14      -2.7210      1.00000
     15      -2.5220      1.00000
     16      -2.4939      1.00000
     17      -1.9331      1.00000
     18      -1.9174      1.00000
     19      -1.8136      1.00000
     20      -1.7727      1.00000
     21      -0.5453      1.00000
     22      -0.4524      1.00000
     23      -0.3966      1.00000
     24      -0.2090      1.00000
     25      -0.1195      1.00000
     26       0.6243      1.00000
     27       0.6619      1.00000
     28       0.9399      1.00000
     29       0.9637      1.00000
     30       1.2147      1.00000
     31       1.5902      1.00000
     32       1.8198      1.00000
     33       1.8288      1.00000
     34       2.0509      1.00000
     35       2.0660      1.00000
     36       2.1480      1.00000
     37       2.3628      1.00000
     38       2.5436      1.00000
     39       3.8886      0.00000
     40       4.0322      0.00000
     41       4.0552      0.00000
     42       4.2846      0.00000
     43       4.9007      0.00000
     44       4.9913      0.00000
     45       5.1872      0.00000
     46       5.3040      0.00000
     47       5.9260      0.00000
     48       6.1821      0.00000

 k-point   3 :       0.0000    0.1111    0.0000
  band No.  band energies     occupation 
      1     -16.5815      1.00000
      2     -15.9221      1.00000
      3     -15.7113      1.00000
      4     -14.8758      1.00000
      5     -14.6640      1.00000
      6     -14.6333      1.00000
      7     -14.4597      1.00000
      8     -14.4440      1.00000
      9      -4.0925      1.00000
     10      -3.5095      1.00000
     11      -3.2907      1.00000
     12      -3.1051      1.00000
     13      -2.7818      1.00000
     14      -2.5692      1.00000
     15      -2.5256      1.00000
     16      -2.5026      1.00000
     17      -2.1152      1.00000
     18      -1.9930      1.00000
     19      -1.6652      1.00000
     20      -1.2769      1.00000
     21      -1.2107      1.00000
     22      -0.6153      1.00000
     23      -0.5757      1.00000
     24      -0.2393      1.00000
     25      -0.2336      1.00000
     26       0.0710      1.00000
     27       0.4166      1.00000
     28       0.7730      1.00000
     29       0.8701      1.00000
     30       1.3598      1.00000
     31       1.6153      1.00000
     32       1.7499      1.00000
     33       1.8833      1.00000
     34       1.9701      1.00000
     35       2.1515      1.00000
     36       2.2881      1.00000
     37       2.4403      1.00000
     38       2.5809      1.00000
     39       3.7138      0.00000
     40       4.1500      0.00000
     41       4.3393      0.00000
     42       4.5887      0.00000
     43       4.8601      0.00000
     44       5.0545      0.00000
     45       5.1304      0.00000
     46       5.3086      0.00000
     47       5.5266      0.00000
     48       6.0695      0.00000

 k-point   4 :       0.3333    0.1111    0.0000
  band No.  band energies     occupation 
      1     -16.4879      1.00000
      2     -16.2248      1.00000
      3     -15.3673      1.00000
      4     -15.0166      1.00000
      5     -14.6587      1.00000
      6     -14.6430      1.00000
      7     -14.4523      1.00000
      8     -14.4436      1.00000
      9      -3.8988      1.00000
     10      -3.5789      1.00000
     11      -3.2776      1.00000
     12      -3.1750      1.00000
     13      -2.7676      1.00000
     14      -2.7079      1.00000
     15      -2.5458      1.00000
     16      -2.5416      1.00000
     17      -2.1856      1.00000
     18      -2.1349      1.00000
     19      -1.5175      1.00000
     20      -1.4406      1.00000
     21      -0.8086      1.00000
     22      -0.6699      1.00000
     23      -0.3517      1.00000
     24      -0.3300      1.00000
     25      -0.1978      1.00000
     26       0.1709      1.00000
     27       0.2732      1.00000
     28       0.6679      1.00000
     29       0.9947      1.00000
     30       1.2996      1.00000
     31       1.5166      1.00000
     32       1.6978      1.00000
     33       1.9393      1.00000
     34       1.9798      1.00000
     35       2.1841      1.00000
     36       2.2623      1.00000
     37       2.4544      1.00000
     38       2.5208      1.00000
     39       3.8360      0.00000
     40       4.0824      0.00000
     41       4.3408      0.00000
     42       4.4264      0.00000
     43       4.9545      0.00000
     44       5.0436      0.00000
     45       5.1552      0.00000
     46       5.2541      0.00000
     47       5.6988      0.00000
     48       5.9577      0.00000

 k-point   5 :       0.0000    0.2222    0.0000
  band No.  band energies     occupation 
      1     -16.2424      1.00000
      2     -15.6710      1.00000
      3     -15.4748      1.00000
      4     -14.7941      1.00000
      5     -14.6893      1.00000
      6     -14.6634      1.00000
      7     -14.5401      1.00000
      8     -14.5078      1.00000
      9      -3.6483      1.00000
     10      -3.1943      1.00000
     11      -3.0428      1.00000
     12      -2.9034      1.00000
     13      -2.8942      1.00000
     14      -2.7893      1.00000
     15      -2.6211      1.00000
     16      -2.4541      1.00000
     17      -2.1368      1.00000
     18      -1.8822      1.00000
     19      -1.7450      1.00000
     20      -1.4932      1.00000
     21      -1.4560      1.00000
     22      -1.2027      1.00000
     23      -0.5971      1.00000
     24      -0.3479      1.00000
     25      -0.2729      1.00000
     26      -0.0026      1.00000
     27       0.0836      1.00000
     28       0.1145      1.00000
     29       0.7562      1.00000
     30       1.1542      1.00000
     31       1.1843      1.00000
     32       1.6004      1.00000
     33       1.8398      1.00000
     34       1.9895      1.00000
     35       2.2139      1.00000
     36       2.3429      1.00000
     37       2.5327      1.00000
     38       2.5368      1.00000
     39       3.9093      0.00000
     40       4.3243      0.00000
     41       4.5999      0.00000
     42       4.6631      0.00000
     43       4.8388      0.00000
     44       4.9987      0.00000
     45       5.0321      0.00000
     46       5.2255      0.00000
     47       5.3843      0.00000
     48       5.7178      0.00000

 k-point   6 :       0.3333    0.2222    0.0000
  band No.  band energies     occupation 
      1     -16.1598      1.00000
      2     -15.9290      1.00000
      3     -15.1889      1.00000
      4     -14.9017      1.00000
      5     -14.6888      1.00000
      6     -14.6739      1.00000
      7     -14.5293      1.00000
      8     -14.5130      1.00000
      9      -3.5354      1.00000
     10      -3.3146      1.00000
     11      -3.0323      1.00000
     12      -2.9269      1.00000
     13      -2.7901      1.00000
     14      -2.7434      1.00000
     15      -2.6859      1.00000
     16      -2.5563      1.00000
     17      -2.1895      1.00000
     18      -1.9547      1.00000
     19      -1.5925      1.00000
     20      -1.5659      1.00000
     21      -1.3834      1.00000
     22      -0.9182      1.00000
     23      -0.7551      1.00000
     24      -0.6365      1.00000
     25      -0.2718      1.00000
     26      -0.1700      1.00000
     27       0.1499      1.00000
     28       0.3108      1.00000
     29       0.9701      1.00000
     30       1.1175      1.00000
     31       1.2192      1.00000
     32       1.4529      1.00000
     33       1.9254      1.00000
     34       2.0181      1.00000
     35       2.1758      1.00000
     36       2.1998      1.00000
     37       2.6051      1.00000
     38       2.6145      1.00000
     39       3.9699      0.00000
     40       4.1795      0.00000
     41       4.5558      0.00000
     42       4.5586      0.00000
     43       4.8799      0.00000
     44       4.9376      0.00000
     45       5.2344      0.00000
     46       5.2448      0.00000
     47       5.4210      0.00000
     48       5.6166      0.00000

 k-point   7 :       0.0000    0.3333    0.0000
  band No.  band energies     occupation 
      1     -15.7665      1.00000
      2     -15.3481      1.00000
      3     -15.1831      1.00000
      4     -14.7677      1.00000
      5     -14.7160      1.00000
      6     -14.7029      1.00000
      7     -14.6571      1.00000
      8     -14.5920      1.00000
      9      -3.2590      1.00000
     10      -3.1642      1.00000
     11      -2.9868      1.00000
     12      -2.9425      1.00000
     13      -2.8281      1.00000
     14      -2.8227      1.00000
     15      -2.7082      1.00000
     16      -2.5391      1.00000
     17      -2.2179      1.00000
     18      -2.2121      1.00000
     19      -1.6651      1.00000
     20      -1.3535      1.00000
     21      -1.3068      1.00000
     22      -1.1426      1.00000
     23      -0.8233      1.00000
     24      -0.5656      1.00000
     25      -0.3957      1.00000
     26      -0.2285      1.00000
     27       0.0051      1.00000
     28       0.0240      1.00000
     29       0.7648      1.00000
     30       0.7709      1.00000
     31       0.8341      1.00000
     32       0.9533      1.00000
     33       1.7728      1.00000
     34       1.9393      1.00000
     35       2.0283      1.00000
     36       2.3198      1.00000
     37       2.4898      1.00000
     38       2.5266      1.00000
     39       4.1102      0.00000
     40       4.4721      0.00000
     41       4.5136      0.00000
     42       4.5802      0.00000
     43       4.7698      0.00000
     44       4.9013      0.00000
     45       4.9346      0.00000
     46       5.2379      0.00000
     47       5.2540      0.00000
     48       5.5867      0.00000

 k-point   8 :       0.3333    0.3333    0.0000
  band No.  band energies     occupation 
      1     -15.7035      1.00000
      2     -15.5305      1.00000
      3     -14.9908      1.00000
      4     -14.8039      1.00000
      5     -14.7417      1.00000
      6     -14.7232      1.00000
      7     -14.6346      1.00000
      8     -14.6055      1.00000
      9      -3.3166      1.00000
     10      -3.2609      1.00000
     11      -2.9583      1.00000
     12      -2.8774      1.00000
     13      -2.7988      1.00000
     14      -2.7698      1.00000
     15      -2.6813      1.00000
     16      -2.5653      1.00000
     17      -2.1989      1.00000
     18      -1.9883      1.00000
     19      -1.6802      1.00000
     20      -1.6231      1.00000
     21      -1.3236      1.00000
     22      -1.2708      1.00000
     23      -0.6644      1.00000
     24      -0.5804      1.00000
     25      -0.2956      1.00000
     26      -0.2854      1.00000
     27      -0.1739      1.00000
     28      -0.0169      1.00000
     29       0.8478      1.00000
     30       0.8711      1.00000
     31       0.9442      1.00000
     32       0.9638      1.00000
     33       1.7501      1.00000
     34       1.8199      1.00000
     35       2.0948      1.00000
     36       2.2385      1.00000
     37       2.5553      1.00000
     38       2.5835      1.00000
     39       4.1396      0.00000
     40       4.2802      0.00000
     41       4.5073      0.00000
     42       4.5135      0.00000
     43       4.8210      0.00000
     44       4.8603      0.00000
     45       5.1185      0.00000
     46       5.2169      0.00000
     47       5.3085      0.00000
     48       5.4988      0.00000

 k-point   9 :       0.0000    0.4444    0.0000
  band No.  band energies     occupation 
      1     -15.2791      1.00000
      2     -15.0666      1.00000
      3     -14.9661      1.00000
      4     -14.9130      1.00000
      5     -14.7914      1.00000
      6     -14.7475      1.00000
      7     -14.7367      1.00000
      8     -14.6493      1.00000
      9      -3.6869      1.00000
     10      -3.4882      1.00000
     11      -3.1245      1.00000
     12      -2.9909      1.00000
     13      -2.6618      1.00000
     14      -2.5732      1.00000
     15      -2.5503      1.00000
     16      -2.3918      1.00000
     17      -2.1804      1.00000
     18      -1.9094      1.00000
     19      -1.9033      1.00000
     20      -1.4718      1.00000
     21      -1.0871      1.00000
     22      -0.9233      1.00000
     23      -0.8129      1.00000
     24      -0.5091      1.00000
     25      -0.1794      1.00000
     26      -0.1582      1.00000
     27      -0.0954      1.00000
     28       0.0494      1.00000
     29       0.2869      1.00000
     30       0.4861      1.00000
     31       0.5563      1.00000
     32       0.6592      1.00000
     33       1.5630      1.00000
     34       1.6165      1.00000
     35       1.8969      1.00000
     36       2.2970      1.00000
     37       2.4323      1.00000
     38       2.5459      1.00000
     39       4.3163      0.00000
     40       4.3612      0.00000
     41       4.4738      0.00000
     42       4.5278      0.00000
     43       4.6238      0.00000
     44       4.8786      0.00000
     45       4.9763      0.00000
     46       5.1112      0.00000
     47       5.2142      0.00000
     48       5.5602      0.00000

 k-point  10 :       0.3333    0.4444    0.0000
  band No.  band energies     occupation 
      1     -15.2444      1.00000
      2     -15.1525      1.00000
      3     -14.9074      1.00000
      4     -14.9040      1.00000
      5     -14.8013      1.00000
      6     -14.7599      1.00000
      7     -14.7123      1.00000
      8     -14.6684      1.00000
      9      -3.5818      1.00000
     10      -3.3406      1.00000
     11      -3.2726      1.00000
     12      -3.1008      1.00000
     13      -2.7855      1.00000
     14      -2.7105      1.00000
     15      -2.5970      1.00000
     16      -2.4576      1.00000
     17      -1.9535      1.00000
     18      -1.9281      1.00000
     19      -1.6539      1.00000
     20      -1.3449      1.00000
     21      -0.9729      1.00000
     22      -0.9286      1.00000
     23      -0.8208      1.00000
     24      -0.6983      1.00000
     25      -0.3064      1.00000
     26      -0.3048      1.00000
     27      -0.0530      1.00000
     28       0.0312      1.00000
     29       0.3422      1.00000
     30       0.4755      1.00000
     31       0.6014      1.00000
     32       0.6809      1.00000
     33       1.5557      1.00000
     34       1.5750      1.00000
     35       2.0006      1.00000
     36       2.1999      1.00000
     37       2.5068      1.00000
     38       2.5620      1.00000
     39       4.2961      0.00000
     40       4.3090      0.00000
     41       4.4414      0.00000
     42       4.5171      0.00000
     43       4.6997      0.00000
     44       4.7905      0.00000
     45       5.0449      0.00000
     46       5.1582      0.00000
     47       5.2695      0.00000
     48       5.4762      0.00000

 k-point  11 :       0.0000    0.0000    0.1667
  band No.  band energies     occupation 
      1     -16.6364      1.00000
      2     -16.0240      1.00000
      3     -15.7456      1.00000
      4     -14.9719      1.00000
      5     -14.6600      1.00000
      6     -14.6353      1.00000
      7     -14.4709      1.00000
      8     -14.4655      1.00000
      9      -4.2184      1.00000
     10      -3.5880      1.00000
     11      -3.4162      1.00000
     12      -3.1808      1.00000
     13      -2.7683      1.00000
     14      -2.5362      1.00000
     15      -2.4794      1.00000
     16      -2.3873      1.00000
     17      -1.9807      1.00000
     18      -1.9735      1.00000
     19      -1.7583      1.00000
     20      -1.4157      1.00000
     21      -1.0680      1.00000
     22      -0.5101      1.00000
     23      -0.2440      1.00000
     24      -0.0948      1.00000
     25      -0.0804      1.00000
     26       0.3565      1.00000
     27       0.6113      1.00000
     28       1.0418      1.00000
     29       1.1109      1.00000
     30       1.2172      1.00000
     31       1.3911      1.00000
     32       1.6127      1.00000
     33       1.6150      1.00000
     34       1.8147      1.00000
     35       2.1683      1.00000
     36       2.1783      1.00000
     37       2.5960      1.00000
     38       2.7755      1.00000
     39       3.6924      0.00000
     40       3.9558      0.00000
     41       4.0194      0.00000
     42       4.5119      0.00000
     43       4.8058      0.00000
     44       5.0687      0.00000
     45       5.2043      0.00000
     46       5.4360      0.00000
     47       5.7468      0.00000
     48       6.2846      0.00000

 k-point  12 :       0.3333    0.0000    0.1667
  band No.  band energies     occupation 
      1     -16.5457      1.00000
      2     -16.2930      1.00000
      3     -15.4383      1.00000
      4     -15.1052      1.00000
      5     -14.6547      1.00000
      6     -14.6420      1.00000
      7     -14.4686      1.00000
      8     -14.4642      1.00000
      9      -4.0333      1.00000
     10      -3.6937      1.00000
     11      -3.4092      1.00000
     12      -3.2802      1.00000
     13      -2.7605      1.00000
     14      -2.5545      1.00000
     15      -2.5222      1.00000
     16      -2.4937      1.00000
     17      -1.9284      1.00000
     18      -1.9072      1.00000
     19      -1.8223      1.00000
     20      -1.5913      1.00000
     21      -0.5406      1.00000
     22      -0.4581      1.00000
     23      -0.3990      1.00000
     24      -0.1847      1.00000
     25      -0.0760      1.00000
     26       0.5464      1.00000
     27       0.7034      1.00000
     28       0.8401      1.00000
     29       0.9447      1.00000
     30       1.1681      1.00000
     31       1.4044      1.00000
     32       1.6915      1.00000
[...]
     10      -3.4104      1.00000
     11      -3.1616      1.00000
     12      -3.1291      1.00000
     13      -2.9852      1.00000
     14      -2.9475      1.00000
     15      -2.7618      1.00000
     16      -2.7613      1.00000
     17      -2.0954      1.00000
     18      -2.0907      1.00000
     19      -1.5343      1.00000
     20      -1.5151      1.00000
     21      -0.8365      1.00000
     22      -0.7840      1.00000
     23      -0.6550      1.00000
     24      -0.5382      1.00000
     25      -0.4488      1.00000
     26      -0.3137      1.00000
     27       0.1767      1.00000
     28       0.3767      1.00000
     29       0.6446      1.00000
     30       0.7645      1.00000
     31       1.1196      1.00000
     32       1.1508      1.00000
     33       1.8033      1.00000
     34       1.8421      1.00000
     35       2.2026      1.00000
     36       2.2302      1.00000
     37       2.4391      1.00000
     38       2.5672      1.00000
     39       4.2772      0.00000
     40       4.2980      0.00000
     41       4.4634      0.00000
     42       4.4851      0.00000
     43       4.6146      0.00000
     44       4.6945      0.00000
     45       5.0663      0.00000
     46       5.1899      0.00000
     47       5.4379      0.00000
     48       5.5199      0.00000

 k-point  39 :       0.0000    0.4444    0.5000
  band No.  band energies     occupation 
      1     -15.1172      1.00000
      2     -15.1112      1.00000
      3     -14.9255      1.00000
      4     -14.8904      1.00000
      5     -14.8000      1.00000
      6     -14.7961      1.00000
      7     -14.7453      1.00000
      8     -14.7180      1.00000
      9      -3.7842      1.00000
     10      -3.6340      1.00000
     11      -3.4053      1.00000
     12      -3.1091      1.00000
     13      -2.8602      1.00000
     14      -2.8531      1.00000
     15      -2.7437      1.00000
     16      -2.6267      1.00000
     17      -2.3308      1.00000
     18      -2.2010      1.00000
     19      -1.4282      1.00000
     20      -1.3916      1.00000
     21      -0.9563      1.00000
     22      -0.8871      1.00000
     23      -0.6628      1.00000
     24      -0.6539      1.00000
     25      -0.3315      1.00000
     26      -0.2995      1.00000
     27      -0.1361      1.00000
     28       0.4445      1.00000
     29       0.9434      1.00000
     30       1.0912      1.00000
     31       1.1619      1.00000
     32       1.2333      1.00000
     33       1.5794      1.00000
     34       1.6464      1.00000
     35       1.9331      1.00000
     36       2.1719      1.00000
     37       2.2596      1.00000
     38       2.4586      1.00000
     39       4.2490      0.00000
     40       4.3009      0.00000
     41       4.3769      0.00000
     42       4.4811      0.00000
     43       4.5472      0.00000
     44       4.8536      0.00000
     45       4.9602      0.00000
     46       5.1795      0.00000
     47       5.3721      0.00000
     48       5.4093      0.00000

 k-point  40 :       0.3333    0.4444    0.5000
  band No.  band energies     occupation 
      1     -15.1158      1.00000
      2     -15.1128      1.00000
      3     -14.9179      1.00000
      4     -14.9006      1.00000
      5     -14.7983      1.00000
      6     -14.7966      1.00000
      7     -14.7377      1.00000
      8     -14.7242      1.00000
      9      -3.7214      1.00000
     10      -3.6057      1.00000
     11      -3.4986      1.00000
     12      -3.3554      1.00000
     13      -2.7519      1.00000
     14      -2.6690      1.00000
     15      -2.6672      1.00000
     16      -2.5833      1.00000
     17      -2.2942      1.00000
     18      -2.1019      1.00000
     19      -1.7528      1.00000
     20      -1.6968      1.00000
     21      -0.8104      1.00000
     22      -0.7910      1.00000
     23      -0.6680      1.00000
     24      -0.6532      1.00000
     25      -0.2659      1.00000
     26      -0.2466      1.00000
     27       0.0047      1.00000
     28       0.3224      1.00000
     29       0.9352      1.00000
     30       1.0135      1.00000
     31       1.1949      1.00000
     32       1.2211      1.00000
     33       1.5901      1.00000
     34       1.6208      1.00000
     35       2.0352      1.00000
     36       2.1671      1.00000
     37       2.3007      1.00000
     38       2.3852      1.00000
     39       4.2073      0.00000
     40       4.2571      0.00000
     41       4.4153      0.00000
     42       4.4974      0.00000
     43       4.5615      0.00000
     44       4.6984      0.00000
     45       5.0442      0.00000
     46       5.1557      0.00000
     47       5.4061      0.00000
     48       5.4351      0.00000


--------------------------------------------------------------------------------------------------------


 soft charge-density along one line, spin component           1
         0         1         2         3         4         5         6         7         8         9
 total charge-density along one line
 
 soft charge-density along one line, spin component           2
         0         1         2         3         4         5         6         7         8         9
 total charge-density along one line
 
 pseudopotential strength for first ion, spin component:           1
 -8.454  -0.104   0.000   0.000  -0.000  -8.965  -0.102   0.000
 -0.104  -8.422   0.000  -0.000  -0.000  -0.102  -8.934   0.000
  0.000   0.000  -8.462   0.038  -0.022   0.000   0.000  -8.973
  0.000  -0.000   0.038  -8.355   0.097   0.000  -0.000   0.037
 -0.000  -0.000  -0.022   0.097  -8.520  -0.000  -0.000  -0.022
 -8.965  -0.102   0.000   0.000  -0.000  -9.453  -0.100   0.000
 -0.102  -8.934   0.000  -0.000  -0.000  -0.100  -9.422   0.000
  0.000   0.000  -8.973   0.037  -0.022   0.000   0.000  -9.460
  0.000  -0.000   0.037  -8.868   0.095   0.000  -0.000   0.036
 -0.000  -0.000  -0.022   0.095  -9.031  -0.000  -0.000  -0.022
  0.000  -0.000  -0.010  -0.001  -0.009   0.000  -0.000  -0.010
  0.000  -0.000  -0.020  -0.002  -0.018   0.000  -0.000  -0.020
 -0.009  -0.001  -0.000  -0.000  -0.000  -0.009  -0.001  -0.000
 -0.000   0.000   0.001  -0.002  -0.000  -0.000   0.000   0.001
  0.000  -0.000   0.009  -0.001  -0.008   0.000  -0.000   0.009
 -0.010  -0.001  -0.000  -0.000  -0.000  -0.010  -0.001  -0.000
 -0.000   0.000   0.001  -0.002   0.000  -0.000   0.000   0.001
  0.000  -0.000   0.010  -0.001  -0.009   0.000  -0.000   0.010
 pseudopotential strength for first ion, spin component:           2
 -6.914   0.254   0.000   0.000  -0.000  -7.453   0.251   0.000
  0.254  -6.880   0.000  -0.000  -0.000   0.251  -7.419   0.000
  0.000   0.000  -6.644  -0.079  -0.054   0.000   0.000  -7.186
  0.000  -0.000  -0.079  -6.929  -0.202   0.000  -0.000  -0.078
 -0.000  -0.000  -0.054  -0.202  -6.781  -0.000  -0.000  -0.053
 -7.453   0.251   0.000   0.000  -0.000  -7.966   0.248   0.000
  0.251  -7.419   0.000  -0.000  -0.000   0.248  -7.933   0.000
  0.000   0.000  -7.186  -0.078  -0.053   0.000   0.000  -7.703
  0.000  -0.000  -0.078  -7.467  -0.199   0.000  -0.000  -0.077
 -0.000  -0.000  -0.053  -0.199  -7.321  -0.000  -0.000  -0.053
  0.000  -0.000  -0.012  -0.001  -0.004   0.000  -0.000  -0.013
  0.000  -0.000  -0.024  -0.001  -0.008   0.000  -0.000  -0.024
 -0.003   0.004  -0.000  -0.000  -0.000  -0.003   0.004  -0.000
 -0.000   0.000   0.000  -0.004  -0.000  -0.000   0.000   0.000
  0.000  -0.000  -0.000   0.003  -0.002   0.000  -0.000   0.000
 -0.002   0.005  -0.000  -0.000  -0.000  -0.002   0.005  -0.000
 -0.000   0.000   0.000  -0.005  -0.001  -0.000   0.000   0.000
  0.000  -0.000  -0.001   0.004  -0.001   0.000  -0.000  -0.001
 total augmentation occupancy for first ion, spin component:           1
  6.175   1.666   0.000   0.000   0.000  -5.558  -0.145   0.000   0.000  -0.000   0.000   0.000   0.076   0.000   0.000  -0.012
  1.666   6.169  -0.000  -0.000   0.000  -0.158  -5.525   0.000   0.000   0.000  -0.000  -0.000   0.160   0.000  -0.000  -0.018
  0.000   0.000   7.536  -0.384  -0.056  -0.000   0.000  -5.491  -0.141  -0.263   0.551  -0.111   0.000  -0.084  -0.234   0.000
  0.000  -0.000  -0.384   5.311  -0.986   0.000   0.000  -0.135  -5.228  -0.272  -0.352   0.057   0.000  -0.154  -0.087   0.000
  0.000   0.000  -0.056  -0.986   7.497   0.000  -0.000  -0.266  -0.295  -6.119   0.310  -0.070   0.000  -0.064   0.117   0.000
 -5.558  -0.158   0.000  -0.000  -0.000   5.973  -1.129  -0.000   0.000  -0.000   0.000   0.000  -0.086   0.000   0.000   0.008
 -0.145  -5.525   0.000   0.000   0.000  -1.129   5.913   0.000   0.000   0.000   0.000   0.000  -0.149   0.000   0.000   0.017
 -0.000  -0.000  -5.491  -0.135  -0.266  -0.000   0.000   4.719   0.584   0.514  -0.541   0.105  -0.000   0.088   0.238  -0.000
  0.000   0.000  -0.141  -5.228  -0.295   0.000   0.000   0.584   6.075   1.371   0.355  -0.064   0.000   0.166   0.084   0.000
 -0.000   0.000  -0.263  -0.272  -6.119   0.000   0.000   0.514   1.371   5.882  -0.302   0.065  -0.000   0.062  -0.109  -0.000
 -0.000   0.000   0.551  -0.352   0.310   0.000   0.000  -0.541   0.355  -0.302   2.935  -0.470   0.000   0.018  -0.018   0.000
 -0.000   0.000  -0.111   0.057  -0.070   0.000   0.000   0.105  -0.064   0.065  -0.470   0.099   0.000  -0.003   0.003   0.000
  0.076   0.160   0.000   0.000   0.000  -0.086  -0.149   0.000  -0.000  -0.000   0.000  -0.000   0.411   0.000   0.000  -0.034
  0.000   0.000  -0.084  -0.154  -0.064   0.000   0.000   0.088   0.166   0.062   0.018  -0.003   0.000   0.359   0.013   0.000
  0.000  -0.000  -0.234  -0.087   0.117   0.000   0.000   0.238   0.084  -0.109  -0.018   0.003   0.000   0.013   0.386   0.000
 -0.012  -0.018   0.000   0.000  -0.000   0.008   0.017  -0.000  -0.000   0.000  -0.000   0.000  -0.034   0.000   0.000   0.003
  0.000   0.000   0.006   0.013   0.008   0.000   0.000  -0.008  -0.015  -0.008  -0.002   0.000   0.000  -0.029  -0.001   0.000
  0.000   0.000   0.033   0.011  -0.021  -0.000  -0.000  -0.027  -0.010   0.015   0.000  -0.001   0.000  -0.001  -0.032   0.000
 total augmentation occupancy for first ion, spin component:           2
  2.976   3.576   0.000  -0.000   0.000  -1.547  -2.454   0.000  -0.000   0.000  -0.000  -0.000   0.028  -0.000   0.000  -0.008
  3.576   3.075  -0.000  -0.000  -0.000  -2.471  -1.620  -0.000  -0.000   0.000   0.000   0.000   0.071   0.000   0.000  -0.008
  0.000  -0.000   6.269  -1.153  -0.707  -0.000   0.000  -3.839   0.784   0.528   0.108  -0.016   0.000  -0.018  -0.095   0.000
 -0.000   0.000  -1.153   1.520  -2.873  -0.000  -0.000   0.799  -0.501   1.986  -0.102  -0.000   0.000  -0.034  -0.003   0.000
  0.000   0.000  -0.707  -2.873   4.857  -0.000   0.000   0.530   1.951  -2.817   0.021  -0.015   0.000   0.012   0.055   0.000
 -1.547  -2.471   0.000  -0.000   0.000   0.654   1.756   0.000   0.000  -0.000  -0.000  -0.000  -0.014   0.000   0.000   0.005
 -2.454  -1.620  -0.000   0.000   0.000   1.756   0.709   0.000   0.000  -0.000  -0.000   0.000  -0.049  -0.000   0.000   0.006
  0.000   0.000  -3.839   0.799   0.530   0.000  -0.000   2.283  -0.568  -0.395  -0.057   0.005   0.000   0.011   0.057   0.000
 -0.000   0.000   0.784  -0.501   1.951   0.000   0.000  -0.568  -0.112  -1.409   0.056   0.001   0.000   0.021   0.006   0.000
  0.000  -0.000   0.528   1.986  -2.817   0.000   0.000  -0.395  -1.409   1.539  -0.001   0.004  -0.000  -0.005  -0.035   0.000
 -0.000   0.000   0.108  -0.102   0.021  -0.000  -0.000  -0.057   0.056  -0.001  -0.231   0.093   0.000   0.001   0.004   0.000
 -0.000   0.000  -0.016  -0.000  -0.015  -0.000   0.000   0.005   0.001   0.004   0.093  -0.019   0.000   0.001   0.000   0.000
  0.028   0.071   0.000   0.000  -0.000  -0.014  -0.049  -0.000   0.000   0.000   0.000   0.000   0.017   0.000   0.000  -0.000
  0.000   0.000  -0.018  -0.034   0.012   0.000   0.000   0.011   0.021  -0.005   0.001   0.001   0.000   0.010   0.000   0.000
  0.000   0.000  -0.095  -0.003   0.055   0.000   0.000   0.057   0.006  -0.035   0.004   0.000   0.000   0.000   0.008   0.000
 -0.008  -0.008  -0.000   0.000  -0.000   0.005   0.006   0.000   0.000  -0.000   0.000   0.000  -0.000   0.000   0.000  -0.000
 -0.000  -0.000  -0.000   0.001   0.001  -0.000   0.000   0.000  -0.001  -0.001   0.000  -0.000   0.000  -0.001  -0.000   0.000
  0.000   0.000   0.018   0.004  -0.014  -0.000   0.000  -0.011  -0.003   0.009  -0.000  -0.000   0.000  -0.000  -0.001   0.000


------------------------ aborting loop because EDIFF is reached ----------------------------------------


    CHARGE:  cpu time    0.06: real time    0.06
    FORLOC:  cpu time    0.00: real time    0.00
    FORNL :  cpu time    0.36: real time    0.36
    STRESS:  cpu time    0.46: real time    0.46
    FORCOR:  cpu time    0.01: real time    0.01
    FORHAR:  cpu time    0.00: real time    0.00
    MIXING:  cpu time    0.00: real time    0.00

  FORCE on cell =-STRESS in cart. coord.  units (eV):
  Direction    XX          YY          ZZ          XY          YZ          ZX
  --------------------------------------------------------------------------------------
  Alpha Z   322.36023   322.36023   322.36023
  Ewald   -1273.83629  -873.20488 -2007.20820     0.00000    -0.00000     0.00000
  Hartree   519.15842   726.58921    88.71167    -0.00000    -0.00000    -0.00000
  E(xc)    -369.35107  -369.45383  -369.09825     0.00000     0.00000     0.00000
  Local    -424.05824 -1011.66853   717.22615     0.00000     0.00000    -0.00000
  n-local  -262.42781  -257.86903  -266.54127     0.04771    -0.09360     0.00432
  augment   173.02691   169.58293   176.03351     0.00000     0.00000    -0.00000
  Kinetic  1315.26936  1293.66601  1338.38860    -0.11380    -0.85748     0.02447
  Fock        0.00000     0.00000     0.00000     0.00000     0.00000     0.00000
  -------------------------------------------------------------------------------------
  Total       0.14151     0.00210    -0.12755     0.00000     0.00000     0.00000
  in kB       1.92044     0.02851    -1.73107     0.00000     0.00000     0.00000
  external pressure =        0.07 kB  Pullay stress =        0.00 kB


 VOLUME and BASIS-vectors are now :
 -----------------------------------------------------------------------------
  energy-cutoff  :      520.00
  volume of cell :      118.06
      direct lattice vectors                 reciprocal lattice vectors
     9.161591668  0.000000000  0.000000000     0.109151339  0.000000000  0.000000000
     0.000000000  2.836796584  0.000000000     0.000000000  0.352510295  0.000000000
     0.000000000  0.000000000  4.542428799     0.000000000  0.000000000  0.220146544

  length of vectors
     9.161591668  2.836796584  4.542428799     0.109151339  0.352510295  0.220146544


 FORCES acting on ions
    electron-ion (+dipol)            ewald-force                    non-local-force                 convergence-correction
 -----------------------------------------------------------------------------------------------
   -.460E+02 0.100E-12 -.734E+01   0.467E+02 0.112E-13 0.746E+01   -.644E+00 0.461E-17 -.131E+00   -.472E-01 0.262E-14 0.217E-02
   -.460E+02 0.705E-12 0.734E+01   0.467E+02 -.181E-13 -.746E+01   -.644E+00 -.889E-17 0.131E+00   -.472E-01 0.600E-14 -.217E-02
   0.460E+02 0.201E-11 0.734E+01   -.467E+02 -.211E-13 -.746E+01   0.644E+00 0.421E-17 0.131E+00   0.472E-01 0.509E-14 -.217E-02
   0.460E+02 -.481E-12 -.734E+01   -.467E+02 0.805E-14 0.746E+01   0.644E+00 0.894E-17 -.131E+00   0.472E-01 0.940E-14 0.217E-02
   0.246E+02 0.204E-11 0.388E+02   -.255E+02 -.879E-14 -.430E+02   0.851E+00 0.384E-17 0.413E+01   0.107E-01 0.107E-13 0.603E-02
   0.246E+02 0.147E-11 -.388E+02   -.255E+02 0.518E-14 0.430E+02   0.851E+00 -.144E-17 -.413E+01   0.107E-01 0.158E-13 -.603E-02
   -.246E+02 -.361E-11 -.388E+02   0.255E+02 0.157E-13 0.430E+02   -.851E+00 0.325E-17 -.413E+01   -.107E-01 0.000E+00 -.603E-02
   -.246E+02 0.115E-11 0.388E+02   0.255E+02 0.192E-14 -.430E+02   -.851E+00 0.153E-17 0.413E+01   -.107E-01 -.171E-13 0.603E-02
   -.275E+02 0.160E-11 -.211E+03   0.312E+02 -.916E-14 0.236E+03   -.375E+01 -.239E-17 -.250E+02   0.466E-02 0.179E-14 -.315E-01
   -.275E+02 -.612E-11 0.211E+03   0.312E+02 0.119E-13 -.236E+03   -.375E+01 -.204E-18 0.250E+02   0.466E-02 0.693E-14 0.315E-01
   0.275E+02 0.386E-12 0.211E+03   -.312E+02 0.151E-13 -.236E+03   0.375E+01 -.530E-17 0.250E+02   -.466E-02 0.594E-14 0.315E-01
   0.275E+02 0.100E-13 -.211E+03   -.312E+02 -.599E-14 0.236E+03   0.375E+01 0.324E-17 -.250E+02   -.466E-02 0.172E-13 -.315E-01
 -----------------------------------------------------------------------------------------------
   -.524E-09 -.733E-12 -.238E-09   0.426E-13 0.592E-14 -.284E-13   0.444E-15 0.114E-16 0.000E+00   0.751E-12 0.643E-13 0.304E-12
 
 
 POSITION                                       TOTAL-FORCE (eV/Angst)
 -----------------------------------------------------------------------------------
      1.24416      0.70920      0.15277         0.016494      0.000000     -0.003102
      5.82496      0.70920      2.11844         0.016494     -0.000000      0.003102
      7.91743      2.12760      4.38966        -0.016494     -0.000000      0.003102
      3.33664      2.12760      2.42398        -0.016494      0.000000     -0.003102
      2.54043      0.70920      1.47863         0.019507      0.000000     -0.010444
      7.12123      0.70920      0.79259         0.019507      0.000000      0.010444
      6.62116      2.12760      3.06380        -0.019507     -0.000000      0.010444
      2.04036      2.12760      3.74984        -0.019507      0.000000     -0.010444
      4.28044      0.70920      3.23657        -0.014541     -0.000000      0.020798
      8.86124      0.70920      3.57707        -0.014541     -0.000000     -0.020798
      4.88115      2.12760      1.30586         0.014541      0.000000     -0.020798
      0.30035      2.12760      0.96536         0.014541     -0.000000      0.020798
 -----------------------------------------------------------------------------------
    total drift:                               -0.000000     -0.000000     -0.000000


--------------------------------------------------------------------------------------------------------



  FREE ENERGIE OF THE ION-ELECTRON SYSTEM (eV)
  ---------------------------------------------------
  free  energy   TOTEN  =      -100.68288392 eV

  energy  without entropy=     -100.68288392  energy(sigma->0) =     -100.68288392
 


--------------------------------------------------------------------------------------------------------


    POTLOK:  cpu time    0.02: real time    0.02


--------------------------------------------------------------------------------------------------------


     LOOP+:  cpu time   34.69: real time   36.24
    4ORBIT:  cpu time    0.00: real time    0.00
 BZINTS: Fermi energy:  3.169860; 76.000000 electrons
         Band energy:-274.225228;  BLOECHL correction:  0.000000

 total amount of memory used by VASP on root node    48225. kBytes
========================================================================

   base      :      30000. kBytes
   nonl-proj :       9838. kBytes
   fftplans  :        438. kBytes
   grid      :       1098. kBytes
   one-center:         93. kBytes
   wavefun   :       6758. kBytes
 
  
  
 General timing and accounting informations for this job:
 ========================================================
  
                  Total CPU time used (sec):       35.969
                            User time (sec):       35.771
                          System time (sec):        0.198
                         Elapsed time (sec):       38.703
  
                   Maximum memory used (kb):       99320.
                   Average memory used (kb):           0.
  
                          Minor page faults:        14159
                          Major page faults:            0
                 Voluntary context switches:         2491
