 vasp.5.3.3 18Dez12 (build May 12 2016 12:04:25) complex                        
  
 executed on             LinuxIFC date 2019.05.07  17:31:08
 running on   16 total cores
 distrk:  each k-point on   16 cores,    1 groups
 distr:  one band on NCORES_PER_BAND=   2 cores,    8 groups


--------------------------------------------------------------------------------------------------------


 INCAR:
 POTCAR:   PAW_PBE O_s 07Sep2000                  
 POTCAR:   PAW_PBE Mn 06Sep2000                   
 POTCAR:   PAW_PBE H 15Jun2001                    
 POTCAR:   PAW_PBE O_s 07Sep2000                  
  local pseudopotential read in
  atomic valenz-charges read in
  non local Contribution for L=           0  read in
    real space projection operators read in
  non local Contribution for L=           0  read in
    real space projection operators read in
  non local Contribution for L=           1  read in
    real space projection operators read in
  non local Contribution for L=           1  read in
    real space projection operators read in
    PAW grid and wavefunctions read in
 
   number of l-projection  operators is LMAX  =           4
   number of lm-projection operators is LMMAX =           8
 
 POTCAR:   PAW_PBE Mn 06Sep2000                   
  local pseudopotential read in
  partial core-charges read in
  atomic valenz-charges read in
  non local Contribution for L=           2  read in
    real space projection operators read in
  non local Contribution for L=           2  read in
    real space projection operators read in
  non local Contribution for L=           0  read in
    real space projection operators read in
  non local Contribution for L=           0  read in
    real space projection operators read in
  non local Contribution for L=           1  read in
    real space projection operators read in
  non local Contribution for L=           1  read in
    real space projection operators read in
    PAW grid and wavefunctions read in
 
   number of l-projection  operators is LMAX  =           6
   number of lm-projection operators is LMMAX =          18
 
 POTCAR:   PAW_PBE H 15Jun2001                    
  local pseudopotential read in
  atomic valenz-charges read in
  non local Contribution for L=           0  read in
    real space projection operators read in
  non local Contribution for L=           0  read in
    real space projection operators read in
  non local Contribution for L=           1  read in
    real space projection operators read in
    PAW grid and wavefunctions read in
 
   number of l-projection  operators is LMAX  =           3
   number of lm-projection operators is LMMAX =           5
 

 ----------------------------------------------------------------------------- 
|                                                                             |
|  ADVICE TO THIS USER RUNNING 'VASP/VAMP'   (HEAR YOUR MASTER'S VOICE ...):  |
|                                                                             |
|      You have a (more or less) 'large supercell' and for larger cells       |
|      it might be more efficient to use real space projection operators      |
|      So try LREAL= Auto  in the INCAR   file.                               |
|      Mind: If you want to do a very accurate calculations keep the          |
|      reciprocal projection scheme          (i.e. LREAL=.FALSE.)             |
|                                                                             |
 ----------------------------------------------------------------------------- 

 PAW_PBE O_s 07Sep2000                  :
 energy of atom  1       EATOM= -432.2909
 kinetic energy error for atom=    0.0182 (will be added to EATOM!!)
 PAW_PBE Mn 06Sep2000                   :
 energy of atom  2       EATOM= -416.8732
 kinetic energy error for atom=    0.0155 (will be added to EATOM!!)
 PAW_PBE H 15Jun2001                    :
 energy of atom  3       EATOM=  -12.4884
 kinetic energy error for atom=    0.0156 (will be added to EATOM!!)
 
 
 POSCAR: Mn12 O25 H  (P1) ~ CONTCAR (VASP)       
  positions in direct lattice
  velocities in cartesian coordinates
  No initial velocities read in
 exchange correlation table for  LEXCH =        8
   RHO(1)=    0.500       N(1)  =     2000
   RHO(2)=  100.500       N(2)  =     4000
 


--------------------------------------------------------------------------------------------------------


 ion  position               nearest neighbor table
   1  0.797  0.000  0.448-  34 1.97  34 1.97  26 2.02
   2  0.203  0.000  0.552-  33 1.97  33 1.97  27 2.02
   3  0.213  0.000  0.220-  32 1.92  32 1.92  28 2.00
   4  0.836  0.000  0.238-  37 1.92  37 1.92  29 2.10
   5  0.845  0.000  0.568-  36 1.97  36 1.97  30 2.02
   6  0.155  0.000  0.432-  35 1.97  35 1.97  31 2.02
   7  0.287  0.500  0.286-  28 1.90  28 1.90  32 2.10
   8  0.297  0.500  0.616-  27 1.97  27 1.97  33 2.02
   9  0.703  0.500  0.384-  26 1.97  26 1.97  34 2.02
  10  0.345  0.500  0.400-  31 1.97  31 1.97  35 2.02
  11  0.655  0.500  0.600-  30 1.97  30 1.97  36 2.02
  12  0.662  0.500  0.279-  29 1.85  29 1.85  37 2.03
  13  0.541  0.000  0.444-  34 1.92  34 1.92  31 1.99
  14  0.459  0.000  0.556-  33 1.92  33 1.92  30 1.99
  15  0.462  0.000  0.213-  32 1.92  32 1.92  29 1.97
  16  0.852  0.000  0.320-  37 1.90  37 1.90  26 1.93
  17  0.165  0.000  0.682-  27 1.99
  18  0.835  0.000  0.654-  36 1.92  36 1.92
  19  0.158  0.000  0.347-  35 1.89  35 1.89  28 1.94
  20  0.044  0.500  0.276-  37 1.90  28 1.92  28 1.92
  21  0.041  0.500  0.613-  27 1.92  27 1.92  36 1.99
  22  0.959  0.500  0.387-  26 1.92  26 1.92  35 1.99
  23  0.335  0.500  0.486-  31 1.92  31 1.92  33 1.99
  24  0.665  0.500  0.514-  30 1.92  30 1.92  34 1.99
  25  0.327  0.500  0.151-  38 1.11  32 2.12
  26  0.835  0.000  0.383-  22 1.92  22 1.92  16 1.93   9 1.97   9 1.97   1 2.02  34 3.02  34 3.02

  27  0.165  0.000  0.617-  21 1.92  21 1.92   8 1.97   8 1.97  17 1.99   2 2.02  33 3.02  33 3.02

  28  0.166  0.000  0.283-   7 1.90   7 1.90  20 1.92  20 1.92  19 1.94   3 2.00  32 3.00  32 3.00

  29  0.633  0.000  0.242-  12 1.85  12 1.85  15 1.97   4 2.10  37 2.97  37 2.97
  30  0.652  0.000  0.556-  24 1.92  24 1.92  11 1.97  11 1.97  14 1.99   5 2.02  36 3.02  36 3.02

  31  0.348  0.000  0.444-  23 1.92  23 1.92  10 1.97  10 1.97  13 1.99   6 2.02  35 3.02  35 3.02

  32  0.339  0.500  0.220-  15 1.92  15 1.92   3 1.92   3 1.92   7 2.10  25 2.12  28 3.00  28 3.00

  33  0.335  0.500  0.551-  14 1.92  14 1.92   2 1.97   2 1.97  23 1.99   8 2.02  27 3.02  27 3.02

  34  0.665  0.500  0.449-  13 1.92  13 1.92   1 1.97   1 1.97  24 1.99   9 2.02  26 3.02  26 3.02

  35  0.152  0.500  0.387-  19 1.89  19 1.89   6 1.97   6 1.97  22 1.99  10 2.02  31 3.02  31 3.02

  36  0.848  0.500  0.613-  18 1.92  18 1.92   5 1.97   5 1.97  21 1.99  11 2.02  30 3.02  30 3.02

  37  0.859  0.500  0.279-  16 1.90  16 1.90  20 1.90   4 1.92   4 1.92  12 2.03  29 2.97  29 2.97

  38  0.233  0.450  0.134-  25 1.11
 
  LATTYP: Found a simple orthorhombic cell.
 ALAT       =     2.8540000900
 B/A-ratio  =     3.6117726997
 C/A-ratio  =    10.7273995286
  
  Lattice vectors:
  
 A1 = (   0.0000000000,  -2.8540000900,   0.0000000000)
 A2 = ( -10.3079996100,   0.0000000000,   0.0000000000)
 A3 = (   0.0000000000,   0.0000000000, -30.6159992200)


Analysis of symmetry for initial positions (statically):
=====================================================================
 Subroutine PRICEL returns:
 Original cell was already a primitive cell.
 

 Routine SETGRP: Setting up the symmetry group for a 
 simple orthorhombic supercell.


 Subroutine GETGRP returns: Found  1 space group operations
 (whereof  1 operations were pure point group operations)
 out of a pool of  8 trial point group operations.


The static configuration has the point symmetry C_1 .


Analysis of symmetry for dynamics (positions and initial velocities):
=====================================================================
 Subroutine PRICEL returns:
 Original cell was already a primitive cell.
 

 Routine SETGRP: Setting up the symmetry group for a 
 simple orthorhombic supercell.


 Subroutine GETGRP returns: Found  1 space group operations
 (whereof  1 operations were pure point group operations)
 out of a pool of  8 trial point group operations.


The dynamic configuration has the point symmetry C_1 .


Analysis of constrained symmetry for selective dynamics:
=====================================================================
 Subroutine PRICEL returns:
 Original cell was already a primitive cell.
 

 Routine SETGRP: Setting up the symmetry group for a 
 simple orthorhombic supercell.


 Subroutine GETGRP returns: Found  1 space group operations
 (whereof  1 operations were pure point group operations)
 out of a pool of  8 trial point group operations.


The constrained configuration has the point symmetry C_1 .


Analysis of magnetic symmetry:
=====================================================================

 Subroutine MAGSYM returns: Found  1 space group operations
 (whereof  1 operations were pure point group operations)
 out of a pool of  1 trial space group operations
 (whereof  1 operations were pure point group operations)
 and found also     1 'primitive' translations


The magnetic configuration has the point symmetry C_1 .


 irot  :   1
 --------------------------------------------------------------------
 isymop:   1   0   0
           0   1   0
           0   0   1

 gtrans:     0.0000000     0.0000000     0.0000000

 ptrans:     0.0000000     0.0000000     0.0000000
 rotmap:
 (   1->   1)  (   2->   2)  (   3->   3)  (   4->   4)  (   5->   5) 
 (   6->   6)  (   7->   7)  (   8->   8)  (   9->   9)  (  10->  10) 
 (  11->  11)  (  12->  12)  (  13->  13)  (  14->  14)  (  15->  15) 
 (  16->  16)  (  17->  17)  (  18->  18)  (  19->  19)  (  20->  20) 
 (  21->  21)  (  22->  22)  (  23->  23)  (  24->  24)  (  25->  25) 
 (  26->  26)  (  27->  27)  (  28->  28)  (  29->  29)  (  30->  30) 
 (  31->  31)  (  32->  32)  (  33->  33)  (  34->  34)  (  35->  35) 
 (  36->  36)  (  37->  37)  (  38->  38) 
 
 
 KPOINTS: Automatic mesh                          

Automatic generation of k-mesh.
Space group operators:
 irot       det(A)        alpha          n_x          n_y          n_z        tau_x        tau_y        tau_z
    1     1.000000     0.000000     1.000000     0.000000     0.000000     0.000000     0.000000     0.000000
 
 Subroutine IBZKPT returns following result:
 ===========================================
 
 Found      2 irreducible k-points:
 
 Following reciprocal coordinates:
            Coordinates               Weight
  0.000000  0.000000  0.000000      1.000000
  0.000000  0.500000  0.000000      1.000000
 
 Following cartesian coordinates:
            Coordinates               Weight
  0.000000  0.000000  0.000000      1.000000
  0.000000  0.175193  0.000000      1.000000
 


--------------------------------------------------------------------------------------------------------




 Dimension of arrays:
   k-points           NKPTS =      2   k-points in BZ     NKDIM =      2   number of bands    NBANDS=    144
   number of dos      NEDOS =    301   number of ions     NIONS =     38
   non local maximal  LDIM  =      6   non local SUM 2l+1 LMDIM =     18
   total plane-waves  NPLWV =  96768
   max r-space proj   IRMAX =      1   max aug-charges    IRDMAX=   4149
   dimension x,y,z NGX =    48 NGY =   14 NGZ =  144
   dimension x,y,z NGXF=    96 NGYF=   28 NGZF=  288
   support grid    NGXF=    96 NGYF=   28 NGZF=  288
   ions per type =              25  12   1
 NGX,Y,Z   is equivalent  to a cutoff of   7.74,  8.16,  7.82 a.u.
 NGXF,Y,Z  is equivalent  to a cutoff of  15.48, 16.31, 15.64 a.u.


 I would recommend the setting:
   dimension x,y,z NGX =    48 NGY =   13 NGZ =  144
 SYSTEM =  Mn12 O25 H  (P1) ~ CONTCAR (VASP)       
 POSCAR =  Mn12 O25 H  (P1) ~ CONTCAR (VASP)       

 Startparameter for this run:
   NWRITE =      1    write-flag & timer
   PREC   = normal    normal or accurate (medium, high low for compatibility)
   ISTART =      0    job   : 0-new  1-cont  2-samecut
   ICHARG =      2    charge: 1-file 2-atom 10-const
   ISPIN  =      2    spin polarized calculation?
   LNONCOLLINEAR =      F non collinear calculations
   LSORBIT =      F    spin-orbit coupling
   INIWAV =      1    electr: 0-lowe 1-rand  2-diag
   LASPH  =      F    aspherical Exc in radial PAW
   METAGGA=      F    non-selfconsistent MetaGGA calc.

 Electronic Relaxation 1
   ENCUT  =  367.7 eV  27.02 Ry    5.20 a.u.  16.12  4.46 47.87*2*pi/ulx,y,z
   ENINI  =  367.7     initial cutoff
   ENAUG  =  500.7 eV  augmentation charge cutoff
   NELM   =     60;   NELMIN=  2; NELMDL= -5     # of ELM steps 
   EDIFF  = 0.1E-03   stopping-criterion for ELM
   LREAL  =      F    real-space projection
   NLSPLINE    = F    spline interpolate recip. space projectors
   LCOMPAT=      F    compatible to vasp.4.4
   GGA_COMPAT  = T    GGA compatible to vasp.4.4-vasp.4.6
   LMAXPAW     = -100 max onsite density
   LMAXMIX     =    4 max onsite mixed and CHGCAR
   VOSKOWN=      1    Vosko Wilk Nusair interpolation
   ROPT   =    0.00000   0.00000   0.00000
 Ionic relaxation
   EDIFFG = 0.1E-02   stopping-criterion for IOM
   NSW    =    111    number of steps for IOM
   NBLOCK =      1;   KBLOCK =    111    inner block; outer block 
   IBRION =      2    ionic relax: 0-MD 1-quasi-New 2-CG
   NFREE  =      1    steps in history (QN), initial steepest desc. (CG)
   ISIF   =      2    stress and relaxation
   IWAVPR =     11    prediction:  0-non 1-charg 2-wave 3-comb
   ISYM   =      2    0-nonsym 1-usesym 2-fastsym
   LCORR  =      T    Harris-Foulkes like correction to forces

   POTIM  = 0.5000    time-step for ionic-motion
   TEIN   =    0.0    initial temperature
   TEBEG  =    0.0;   TEEND  =   0.0 temperature during run
   SMASS  =  -3.00    Nose mass-parameter (am)
   estimated Nose-frequenzy (Omega)   =  0.10E-29 period in steps =****** mass=  -0.243E-26a.u.
   SCALEE = 1.0000    scale energy and forces
   NPACO  =    256;   APACO  = 16.0  distance and # of slots for P.C.
   PSTRESS=    0.0 pullay stress

  Mass of Ions in am
   POMASS =  16.00 54.94  1.00
  Ionic Valenz
   ZVAL   =   6.00  7.00  1.00
  Atomic Wigner-Seitz radii
   RWIGS  =  -1.00 -1.00 -1.00
  virtual crystal weights 
   VCA    =   1.00  1.00  1.00
   NELECT =     235.0000    total number of electrons
   NUPDOWN=      -1.0000    fix difference up-down

 DOS related values:
   EMIN   =  10.00;   EMAX   =-10.00  energy-range for DOS
   EFERMI =   0.00
   ISMEAR =     1;   SIGMA  =   0.20  broadening in eV -4-tet -1-fermi 0-gaus

 Electronic relaxation 2 (details)
   IALGO  =     38    algorithm
   LDIAG  =      T    sub-space diagonalisation (order eigenvalues)
   LSUBROT=      T    optimize rotation matrix (better conditioning)
   TURBO    =      0    0=normal 1=particle mesh
   IRESTART =      0    0=no restart 2=restart with 2 vectors
   NREBOOT  =      0    no. of reboots
   NMIN     =      0    reboot dimension
   EREF     =   0.00    reference energy to select bands
   IMIX   =      4    mixing-type and parameters
     AMIX     =   0.40;   BMIX     =  1.00
     AMIX_MAG =   1.60;   BMIX_MAG =  1.00
     AMIN     =   0.10
     WC   =   100.;   INIMIX=   1;  MIXPRE=   1;  MAXMIX= -45

 Intra band minimization:
   WEIMIN = 0.0010     energy-eigenvalue tresh-hold
   EBREAK =  0.17E-06  absolut break condition
   DEPER  =   0.30     relativ break condition  

   TIME   =   0.40     timestep for ELM

  volume/ion in A,a.u.               =      23.70       159.95
  Fermi-wavevector in a.u.,A,eV,Ry     =   1.046097  1.976836 14.889105  1.094318
  Thomas-Fermi vector in A             =   2.180920
 
 Write flags
   LWAVE  =      F    write WAVECAR
   LCHARG =      F    write CHGCAR
   LVTOT  =      F    write LOCPOT, total local potential
   LVHAR  =      F    write LOCPOT, Hartree potential only
   LELF   =      F    write electronic localiz. function (ELF)
   LORBIT =      0    0 simple, 1 ext, 2 COOP (PROOUT)


 Dipole corrections
   LMONO  =      F    monopole corrections only (constant potential shift)
   LDIPOL =      F    correct potential (dipole corrections)
   IDIPOL =      0    1-x, 2-y, 3-z, 4-all directions 
   EPSILON=  1.0000000 bulk dielectric constant

 LDA+U is selected, type is set to LDAUTYPE =  2
   angular momentum for each species LDAUL =    -1    2   -1
   U (eV)           for each species LDAUU =   0.0  3.9  0.0
   J (eV)           for each species LDAUJ =   0.0  0.0  0.0
 Exchange correlation treatment:
   GGA     =    --    GGA type
   LEXCH   =     8    internal setting for exchange type
   VOSKOWN=      1    Vosko Wilk Nusair interpolation
   LHFCALC =     F    Hartree Fock is set to
   LHFONE  =     F    Hartree Fock one center treatment
   AEXX    =    0.0000 exact exchange contribution

 Linear response parameters
   LEPSILON=     F    determine dielectric tensor
   LRPA    =     F    only Hartree local field effects (RPA)
   LNABLA  =     F    use nabla operator in PAW spheres
   LVEL    =     F    velocity operator in full k-point grid
   LINTERFAST=   F  fast interpolation
   KINTER  =     0    interpolate to denser k-point grid
   CSHIFT  =0.1000    complex shift for real part using Kramers Kronig
   OMEGAMAX=  -1.0    maximum frequency
   DEG_THRESHOLD= 0.2000000E-02 threshold for treating states as degnerate
   RTIME   =    0.100 relaxation time in fs

 Orbital magnetization related:
   ORBITALMAG=     F  switch on orbital magnetization
   LCHIMAG   =     F  perturbation theory with respect to B field
   DQ        =  0.001000  dq finite difference perturbation B field



--------------------------------------------------------------------------------------------------------


 conjugate gradient relaxation of ions
   using selective dynamics as specified on POSCAR
 charge density and potential will be updated during run
 spin polarized calculation
 Variant of blocked Davidson
 Davidson routine will perform the subspace rotation
 perform sub-space diagonalisation
    after iterative eigenvector-optimisation
 modified Broyden-mixing scheme, WC =      100.0
 initial mixing is a Kerker type mixing with AMIX =  0.4000 and BMIX =      1.0000
 Hartree-type preconditioning will be used
 using additional bands           26
 reciprocal scheme for non local part
 use partial core corrections
 calculate Harris-corrections to forces 
   (improved forces if not selfconsistent)
 use gradient corrections 
 use of overlap-Matrix (Vanderbilt PP)
 Methfessel and Paxton  Order N= 1 SIGMA  =   0.20


--------------------------------------------------------------------------------------------------------


  energy-cutoff  :      367.69
  volume of cell :      900.69
      direct lattice vectors                 reciprocal lattice vectors
    10.307999610  0.000000000  0.000000000     0.097012033  0.000000000  0.000000000
     0.000000000  2.854000090  0.000000000     0.000000000  0.350385413  0.000000000
     0.000000000  0.000000000 30.615999220     0.000000000  0.000000000  0.032662661

  length of vectors
    10.307999610  2.854000090 30.615999220     0.097012033  0.350385413  0.032662661


 
 k-points in units of 2pi/SCALE and weight: Automatic mesh                          
   0.00000000  0.00000000  0.00000000       0.500
   0.00000000  0.17519271  0.00000000       0.500
 
 k-points in reciprocal lattice and weights: Automatic mesh                          
   0.00000000  0.00000000  0.00000000       0.500
   0.00000000  0.50000000  0.00000000       0.500
 
 position of ions in fractional coordinates (direct lattice) 
   0.79689997  0.00000000  0.44777989
   0.20310000  0.00000000  0.55222011
   0.21335530  0.00000000  0.22007120
   0.83620989  0.00000000  0.23832373
   0.84490001  0.00000000  0.56838107
   0.15510000  0.00000000  0.43161893
   0.28687143  0.50000000  0.28616431
   0.29690000  0.50000000  0.61612326
   0.70310003  0.50000000  0.38387677
   0.34490001  0.50000000  0.40003771
   0.65509999  0.50000000  0.59996229
   0.66233510  0.50000000  0.27924228
   0.54119998  0.00000000  0.44441304
   0.45879999  0.00000000  0.55558699
   0.46211719  0.00000000  0.21290544
   0.85196650  0.00000000  0.32000628
   0.16509999  0.00000000  0.68221486
   0.83490002  0.00000000  0.65447187
   0.15767126  0.00000000  0.34675759
   0.04357711  0.50000000  0.27646926
   0.04120000  0.50000000  0.61275637
   0.95880002  0.50000000  0.38724363
   0.33489999  0.50000000  0.48612851
   0.66509998  0.50000000  0.51387149
   0.32747001  0.50000000  0.15068001
   0.83469999  0.00000000  0.38293403
   0.16530000  0.00000000  0.61706597
   0.16601177  0.00000000  0.28343239
   0.63260937  0.00000000  0.24186395
   0.65230000  0.00000000  0.55565429
   0.34770000  0.00000000  0.44434568
   0.33859748  0.50000000  0.21968684
   0.33469999  0.50000000  0.55127740
   0.66530001  0.50000000  0.44872263
   0.15230000  0.50000000  0.38731095
   0.84770000  0.50000000  0.61268902
   0.85919493  0.50000000  0.27935278
   0.23274700  0.44999999  0.13410610
 
 position of ions in cartesian coordinates  (Angst):
   8.21444458  0.00000000 13.70922876
   2.09355472  0.00000000 16.90677046
   2.19926635  0.00000000  6.73769969
   8.61965122  0.00000000  7.29651913
   8.70922897  0.00000000 17.40155440
   1.59877074  0.00000000 13.21444482
   2.95707059  1.42700004  8.76120629
   3.06044508  1.42700004 18.86322925
   7.24755484  1.42700004 11.75277089
   3.55522917  1.42700004 12.24755422
   6.75277044  1.42700004 18.36844500
   6.82734995  1.42700004  8.54928143
   5.57868918  0.00000000 13.60614929
   4.72931012  0.00000000 17.00985085
   4.76350381  0.00000000  6.51831278
   8.78207035  0.00000000  9.79731202
   1.70185063  0.00000000 20.88668962
   8.60614908  0.00000000 20.03731026
   1.62527529  0.00000000 10.61633010
   0.44919283  1.42700004  8.46438265
   0.42468958  1.42700004 18.76014855
   9.88331023  1.42700004 11.85585067
   3.45214897  1.42700004 14.88331008
   6.85585033  1.42700004 15.73268914
   3.37556074  1.42700004  4.61321907
   8.60408717  0.00000000 11.72390796
   1.70391234  0.00000000 18.89209126
   1.71124926  0.00000000  8.67756583
   6.52093714  0.00000000  7.40490650
   6.72390815  0.00000000 17.01191131
   3.58409146  0.00000000 13.60408699
   3.49026269  1.42700004  6.72593212
   3.45008737  1.42700004 16.87790845
   6.85791224  1.42700004 13.73809169
   1.56990834  1.42700004 11.85791174
   8.73809127  1.42700004 18.75808656
   8.85658100  1.42700004  8.55266449
   2.39915599  1.28430001  4.10579225
 


--------------------------------------------------------------------------------------------------------


 k-point  1 :   0.0000 0.0000 0.0000  plane waves:   14531
 k-point  2 :   0.0000 0.5000 0.0000  plane waves:   14284

 maximum and minimum number of plane-waves per node :      7269     7142

 maximum number of plane-waves:     14531
 maximum index in each direction: 
   IXMAX=   16   IYMAX=    4   IZMAX=   47
   IXMIN=  -16   IYMIN=   -4   IZMIN=  -47

 WARNING: aliasing errors must be expected set NGX to  66 to avoid them
 WARNING: aliasing errors must be expected set NGY to  18 to avoid them
 WARNING: aliasing errors must be expected set NGZ to 190 to avoid them
 aliasing errors are usually negligible using standard VASP settings
 and one can safely disregard these warnings

 parallel 3D FFT for wavefunctions:
    minimum data exchange during FFTs selected (reduces bandwidth)
 parallel 3D FFT for charge:
    minimum data exchange during FFTs selected (reduces bandwidth)


 total amount of memory used by VASP on root node    61186. kBytes
========================================================================

   base      :      30000. kBytes
   nonl-proj :      10692. kBytes
   fftplans  :       3122. kBytes
   grid      :       8166. kBytes
   one-center:        590. kBytes
   wavefun   :       8616. kBytes
 
 Broyden mixing: mesh for mixing (old mesh)
   NGX = 33   NGY =  9   NGZ = 95
  (NGX  = 96   NGY  = 28   NGZ  =288)
  gives a total of  28215 points

 initial charge density was supplied:
 charge density of overlapping atoms calculated
 number of electron     235.0000000 magnetization      -0.0000000
 keeping initial charge density in first step


--------------------------------------------------------------------------------------------------------


 Maximum index for augmentation-charges          301 (set IRDMAX)


--------------------------------------------------------------------------------------------------------


 First call to EWALD:  gamma=   0.184
 Maximum number of real-space cells 3x 8x 1
 Maximum number of reciprocal cells 3x 1x 8

 FEWALD executed in parallel
    FEWALD:  cpu time    0.00: real time    0.00


----------------------------------------- Iteration    1(   1)  ---------------------------------------


    POTLOK:  cpu time    0.08: real time    0.08
    SETDIJ:  cpu time    0.01: real time    0.01
     EDDAV:  cpu time    2.59: real time    2.60
       DOS:  cpu time    0.00: real time    0.00
    --------------------------------------------
      LOOP:  cpu time    2.69: real time    2.76

 eigenvalue-minimisations  :  1168
 total energy-change (2. order) : 0.2772641E+04  (-0.8124608E+04)
 number of electron     235.0000000 magnetization      -0.0000000
 augmentation part      235.0000000 magnetization      -0.0000000

 Free energy of the ion-electron system (eV)
  ---------------------------------------------------
  alpha Z        PSCENC =       365.83378985
  Ewald energy   TEWEN  =     95338.92795248
  -1/2 Hartree   DENC   =   -110193.85320877
  -exchange  EXHF       =         0.00000000
  -V(xc)+E(xc)   XCENC  =       555.74077042
  PAW double counting   =     11200.09724383   -11040.26764092
  entropy T*S    EENTRO =        -0.00072179
  eigenvalues    EBANDS =       724.57873190
  atomic energy  EATOM  =     15821.58433428
  ---------------------------------------------------
  free energy    TOTEN  =      2772.64125127 eV

  energy without entropy =     2772.64197307  energy(sigma->0) =     2772.64149187


--------------------------------------------------------------------------------------------------------




----------------------------------------- Iteration    1(   2)  ---------------------------------------


     EDDAV:  cpu time    2.59: real time    2.60
       DOS:  cpu time    0.00: real time    0.00
    --------------------------------------------
      LOOP:  cpu time    2.59: real time    2.67

 eigenvalue-minimisations  :  1176
 total energy-change (2. order) :-0.2441679E+04  (-0.2360574E+04)
 number of electron     235.0000000 magnetization      -0.0000000
 augmentation part      235.0000000 magnetization      -0.0000000

 Free energy of the ion-electron system (eV)
  ---------------------------------------------------
  alpha Z        PSCENC =       365.83378985
  Ewald energy   TEWEN  =     95338.92795248
  -1/2 Hartree   DENC   =   -110193.85320877
  -exchange  EXHF       =         0.00000000
  -V(xc)+E(xc)   XCENC  =       555.74077042
  PAW double counting   =     11200.09724383   -11040.26764092
  entropy T*S    EENTRO =        -0.00104188
  eigenvalues    EBANDS =     -1717.10017879
  atomic energy  EATOM  =     15821.58433428
  ---------------------------------------------------
  free energy    TOTEN  =       330.96202050 eV

  energy without entropy =      330.96306237  energy(sigma->0) =      330.96236779


--------------------------------------------------------------------------------------------------------




----------------------------------------- Iteration    1(   3)  ---------------------------------------


     EDDAV:  cpu time    3.46: real time    3.47
       DOS:  cpu time    0.00: real time    0.00
    --------------------------------------------
      LOOP:  cpu time    3.47: real time    3.55

 eigenvalue-minimisations  :  1704
 total energy-change (2. order) :-0.6210809E+03  (-0.5981726E+03)
 number of electron     235.0000000 magnetization      -0.0000000
 augmentation part      235.0000000 magnetization      -0.0000000

 Free energy of the ion-electron system (eV)
  ---------------------------------------------------
  alpha Z        PSCENC =       365.83378985
  Ewald energy   TEWEN  =     95338.92795248
  -1/2 Hartree   DENC   =   -110193.85320877
  -exchange  EXHF       =         0.00000000
  -V(xc)+E(xc)   XCENC  =       555.74077042
  PAW double counting   =     11200.09724383   -11040.26764092
  entropy T*S    EENTRO =        -0.00519151
  eigenvalues    EBANDS =     -2338.17690934
  atomic energy  EATOM  =     15821.58433428
  ---------------------------------------------------
  free energy    TOTEN  =      -290.11885969 eV

  energy without entropy =     -290.11366818  energy(sigma->0) =     -290.11712918


--------------------------------------------------------------------------------------------------------




----------------------------------------- Iteration    1(   4)  ---------------------------------------


     EDDAV:  cpu time    3.63: real time    3.64
       DOS:  cpu time    0.00: real time    0.00
    --------------------------------------------
      LOOP:  cpu time    3.64: real time    3.85

 eigenvalue-minimisations  :  1816
 total energy-change (2. order) :-0.6006589E+02  (-0.5885865E+02)
 number of electron     235.0000000 magnetization      -0.0000000
 augmentation part      235.0000000 magnetization      -0.0000000

 Free energy of the ion-electron system (eV)
  ---------------------------------------------------
  alpha Z        PSCENC =       365.83378985
  Ewald energy   TEWEN  =     95338.92795248
  -1/2 Hartree   DENC   =   -110193.85320877
  -exchange  EXHF       =         0.00000000
  -V(xc)+E(xc)   XCENC  =       555.74077042
  PAW double counting   =     11200.09724383   -11040.26764092
  entropy T*S    EENTRO =        -0.05685354
  eigenvalues    EBANDS =     -2398.19113826
  atomic energy  EATOM  =     15821.58433428
  ---------------------------------------------------
  free energy    TOTEN  =      -350.18475063 eV

  energy without entropy =     -350.12789709  energy(sigma->0) =     -350.16579945


--------------------------------------------------------------------------------------------------------




----------------------------------------- Iteration    1(   5)  ---------------------------------------


     EDDAV:  cpu time    3.54: real time    3.54
       DOS:  cpu time    0.00: real time    0.00
    CHARGE:  cpu time    0.10: real time    0.10
    MIXING:  cpu time    0.00: real time    0.00
    --------------------------------------------
      LOOP:  cpu time    3.65: real time    3.74

 eigenvalue-minimisations  :  1760
 total energy-change (2. order) :-0.1622016E+01  (-0.1602966E+01)
 number of electron     234.9999694 magnetization       0.0178602
 augmentation part       65.3737838 magnetization      -0.1864952

 Broyden mixing:
  rms(total) = 0.67541E+01    rms(broyden)= 0.67467E+01
  rms(prec ) = 0.70867E+01
  weight for this iteration     100.00

 Free energy of the ion-electron system (eV)
  ---------------------------------------------------
  alpha Z        PSCENC =       365.83378985
  Ewald energy   TEWEN  =     95338.92795248
  -1/2 Hartree   DENC   =   -110193.85320877
  -exchange  EXHF       =         0.00000000
  -V(xc)+E(xc)   XCENC  =       555.74077042
  PAW double counting   =     11200.09724383   -11040.26764092
  entropy T*S    EENTRO =        -0.05807626
  eigenvalues    EBANDS =     -2399.81193168
  atomic energy  EATOM  =     15821.58433428
  ---------------------------------------------------
  free energy    TOTEN  =      -351.80676677 eV

  energy without entropy =     -351.74869051  energy(sigma->0) =     -351.78740802


--------------------------------------------------------------------------------------------------------




----------------------------------------- Iteration    1(   6)  ---------------------------------------


    POTLOK:  cpu time    0.07: real time    0.08
    SETDIJ:  cpu time    0.01: real time    0.01
     EDDAV:  cpu time    4.04: real time    4.04
       DOS:  cpu time    0.00: real time    0.00
    CHARGE:  cpu time    0.10: real time    0.10
    MIXING:  cpu time    0.00: real time    0.00
    --------------------------------------------
      LOOP:  cpu time    4.23: real time    4.32

 eigenvalue-minimisations  :  2056
 total energy-change (2. order) :-0.2587316E+02  (-0.1612580E+03)
 number of electron     235.0000018 magnetization      -0.0012072
 augmentation part       84.1797170 magnetization       0.4646115

 Broyden mixing:
  rms(total) = 0.11914E+02    rms(broyden)= 0.11910E+02
  rms(prec ) = 0.13881E+02
  weight for this iteration     100.00

 eigenvalues of (default mixing * dielectric matrix)
  average eigenvalue GAMMA=   0.3342
  0.3342

 Free energy of the ion-electron system (eV)
  ---------------------------------------------------
  alpha Z        PSCENC =       365.83378985
  Ewald energy   TEWEN  =     95338.92795248
  -1/2 Hartree   DENC   =   -110137.42933898
  -exchange  EXHF       =         0.00000000
  -V(xc)+E(xc)   XCENC  =       583.76191129
  PAW double counting   =     12052.53213940   -11880.13363043
  entropy T*S    EENTRO =         0.02033261
  eigenvalues    EBANDS =     -2522.77741797
  atomic energy  EATOM  =     15821.58433428
  ---------------------------------------------------
  free energy    TOTEN  =      -377.67992748 eV

  energy without entropy =     -377.70026009  energy(sigma->0) =     -377.68670502


--------------------------------------------------------------------------------------------------------




----------------------------------------- Iteration    1(   7)  ---------------------------------------


    POTLOK:  cpu time    0.07: real time    0.07
    SETDIJ:  cpu time    0.01: real time    0.01
     EDDAV:  cpu time    4.22: real time    4.22
       DOS:  cpu time    0.00: real time    0.00
    CHARGE:  cpu time    0.10: real time    0.10
    MIXING:  cpu time    0.00: real time    0.00
    --------------------------------------------
      LOOP:  cpu time    4.41: real time    4.50

 eigenvalue-minimisations  :  2168
 total energy-change (2. order) :-0.1157308E+03  (-0.2807186E+03)
 number of electron     234.9999879 magnetization      -0.0080982
 augmentation part       73.0440691 magnetization       0.5874354

 Broyden mixing:
  rms(total) = 0.11189E+02    rms(broyden)= 0.11187E+02
  rms(prec ) = 0.17250E+02
  weight for this iteration     100.00

 eigenvalues of (default mixing * dielectric matrix)
  average eigenvalue GAMMA=   0.2040
  0.3257  0.0822

 Free energy of the ion-electron system (eV)
  ---------------------------------------------------
  alpha Z        PSCENC =       365.83378985
  Ewald energy   TEWEN  =     95338.92795248
  -1/2 Hartree   DENC   =   -110492.80718279
  -exchange  EXHF       =         0.00000000
  -V(xc)+E(xc)   XCENC  =       564.95938643
  PAW double counting   =     12100.29140431   -11965.80563778
  entropy T*S    EENTRO =        -0.02302504
  eigenvalues    EBANDS =     -2226.37175705
  atomic energy  EATOM  =     15821.58433428
  ---------------------------------------------------
  free energy    TOTEN  =      -493.41073531 eV

  energy without entropy =     -493.38771026  energy(sigma->0) =     -493.40306029


--------------------------------------------------------------------------------------------------------




----------------------------------------- Iteration    1(   8)  ---------------------------------------


    POTLOK:  cpu time    0.08: real time    0.08
    SETDIJ:  cpu time    0.01: real time    0.01
     EDDAV:  cpu time    3.87: real time    3.87
       DOS:  cpu time    0.00: real time    0.00
    CHARGE:  cpu time    0.10: real time    0.10
    MIXING:  cpu time    0.00: real time    0.00
    --------------------------------------------
      LOOP:  cpu time    4.06: real time    4.17

 eigenvalue-minimisations  :  1952
 total energy-change (2. order) : 0.2354740E+03  (-0.9868440E+02)
 number of electron     234.9999814 magnetization       0.0294206
 augmentation part       65.9569327 magnetization      -0.7412051

 Broyden mixing:
  rms(total) = 0.40520E+01    rms(broyden)= 0.40458E+01
  rms(prec ) = 0.47094E+01
  weight for this iteration     100.00

 eigenvalues of (default mixing * dielectric matrix)
  average eigenvalue GAMMA=   0.2746
  0.4837  0.2288  0.1112

 Free energy of the ion-electron system (eV)
  ---------------------------------------------------
  alpha Z        PSCENC =       365.83378985
  Ewald energy   TEWEN  =     95338.92795248
  -1/2 Hartree   DENC   =   -110496.23355896
  -exchange  EXHF       =         0.00000000
  -V(xc)+E(xc)   XCENC  =       561.15706135
  PAW double counting   =     12122.51097502   -11996.09715485
  entropy T*S    EENTRO =        -0.06759047
  eigenvalues    EBANDS =     -1975.55249617
  atomic energy  EATOM  =     15821.58433428
  ---------------------------------------------------
  free energy    TOTEN  =      -257.93668747 eV

  energy without entropy =     -257.86909700  energy(sigma->0) =     -257.91415732


--------------------------------------------------------------------------------------------------------




----------------------------------------- Iteration    1(   9)  ---------------------------------------


    POTLOK:  cpu time    0.07: real time    0.07
    SETDIJ:  cpu time    0.01: real time    0.01
     EDDAV:  cpu time    3.71: real time    3.72
       DOS:  cpu time    0.00: real time    0.00
    CHARGE:  cpu time    0.10: real time    0.10
    MIXING:  cpu time    0.00: real time    0.00
    --------------------------------------------
      LOOP:  cpu time    3.90: real time    4.02

 eigenvalue-minimisations  :  1856
 total energy-change (2. order) :-0.5989381E+01  (-0.2598900E+02)
 number of electron     234.9999774 magnetization      -0.0002321
 augmentation part       65.7728204 magnetization       0.4124996

 Broyden mixing:
  rms(total) = 0.32893E+01    rms(broyden)= 0.32863E+01
  rms(prec ) = 0.34646E+01
  weight for this iteration     100.00

 eigenvalues of (default mixing * dielectric matrix)
  average eigenvalue GAMMA=   0.3017
  0.6357  0.2259  0.2259  0.1194

 Free energy of the ion-electron system (eV)
  ---------------------------------------------------
  alpha Z        PSCENC =       365.83378985
  Ewald energy   TEWEN  =     95338.92795248
  -1/2 Hartree   DENC   =   -110335.22148278
  -exchange  EXHF       =         0.00000000
  -V(xc)+E(xc)   XCENC  =       561.92949174
  PAW double counting   =     12188.09569733   -12062.23731047
  entropy T*S    EENTRO =        -0.00555455
  eigenvalues    EBANDS =     -2142.83298624
  atomic energy  EATOM  =     15821.58433428
  ---------------------------------------------------
  free energy    TOTEN  =      -263.92606835 eV

  energy without entropy =     -263.92051380  energy(sigma->0) =     -263.92421684


--------------------------------------------------------------------------------------------------------




----------------------------------------- Iteration    1(  10)  ---------------------------------------


    POTLOK:  cpu time    0.07: real time    0.07
    SETDIJ:  cpu time    0.01: real time    0.01
     EDDAV:  cpu time    3.80: real time    3.80
       DOS:  cpu time    0.00: real time    0.00
    CHARGE:  cpu time    0.10: real time    0.10
    MIXING:  cpu time    0.00: real time    0.00
    --------------------------------------------
      LOOP:  cpu time    3.99: real time    4.09

 eigenvalue-minimisations  :  1912
 total energy-change (2. order) : 0.2615272E+01  (-0.3129631E+01)
 number of electron     234.9999793 magnetization       0.0026905
 augmentation part       66.1586882 magnetization      -0.0501659

 Broyden mixing:
  rms(total) = 0.25119E+01    rms(broyden)= 0.25114E+01
  rms(prec ) = 0.26756E+01
  weight for this iteration     100.00

 eigenvalues of (default mixing * dielectric matrix)
  average eigenvalue GAMMA=   0.2986
  0.5781  0.3063  0.3063  0.1221  0.1801

 Free energy of the ion-electron system (eV)
  ---------------------------------------------------
  alpha Z        PSCENC =       365.83378985
  Ewald energy   TEWEN  =     95338.92795248
  -1/2 Hartree   DENC   =   -110341.97763432
  -exchange  EXHF       =         0.00000000
  -V(xc)+E(xc)   XCENC  =       564.54124644
  PAW double counting   =     12280.55049666   -12153.37611478
  entropy T*S    EENTRO =        -0.02682017
  eigenvalues    EBANDS =     -2137.36804708
  atomic energy  EATOM  =     15821.58433428
  ---------------------------------------------------
  free energy    TOTEN  =      -261.31079664 eV

  energy without entropy =     -261.28397647  energy(sigma->0) =     -261.30185658


--------------------------------------------------------------------------------------------------------




----------------------------------------- Iteration    1(  11)  ---------------------------------------


    POTLOK:  cpu time    0.07: real time    0.07
    SETDIJ:  cpu time    0.01: real time    0.01
     EDDAV:  cpu time    3.94: real time    3.95
       DOS:  cpu time    0.00: real time    0.00
    CHARGE:  cpu time    0.10: real time    0.10
    MIXING:  cpu time    0.00: real time    0.00
    --------------------------------------------
      LOOP:  cpu time    4.13: real time    4.36

 eigenvalue-minimisations  :  2000
 total energy-change (2. order) : 0.5465056E+00  (-0.3131435E+00)
 number of electron     234.9999794 magnetization       0.0094418
 augmentation part       66.3411611 magnetization      -0.1077469

 Broyden mixing:
  rms(total) = 0.22458E+01    rms(broyden)= 0.22458E+01
  rms(prec ) = 0.24045E+01
  weight for this iteration     100.00

 eigenvalues of (default mixing * dielectric matrix)
  average eigenvalue GAMMA=   0.3810
  0.5906  0.5906  0.5121  0.1207  0.2361  0.2361

 Free energy of the ion-electron system (eV)
  ---------------------------------------------------
  alpha Z        PSCENC =       365.83378985
  Ewald energy   TEWEN  =     95338.92795248
  -1/2 Hartree   DENC   =   -110336.67849901
  -exchange  EXHF       =         0.00000000
  -V(xc)+E(xc)   XCENC  =       565.91657169
  PAW double counting   =     12318.28619622   -12190.50287377
  entropy T*S    EENTRO =        -0.01986179
  eigenvalues    EBANDS =     -2144.11190100
  atomic energy  EATOM  =     15821.58433428
  ---------------------------------------------------
  free energy    TOTEN  =      -260.76429104 eV

  energy without entropy =     -260.74442925  energy(sigma->0) =     -260.75767044


--------------------------------------------------------------------------------------------------------




----------------------------------------- Iteration    1(  12)  ---------------------------------------


    POTLOK:  cpu time    0.07: real time    0.08
    SETDIJ:  cpu time    0.01: real time    0.01
     EDDAV:  cpu time    4.29: real time    4.29
       DOS:  cpu time    0.00: real time    0.00
    CHARGE:  cpu time    0.10: real time    0.10
    MIXING:  cpu time    0.00: real time    0.00
    --------------------------------------------
      LOOP:  cpu time    4.48: real time    4.58

 eigenvalue-minimisations  :  2208
 total energy-change (2. order) : 0.1234370E+01  (-0.4123869E+00)
 number of electron     234.9999807 magnetization       0.0102380
 augmentation part       66.8848804 magnetization       0.0267236

 Broyden mixing:
  rms(total) = 0.18279E+01    rms(broyden)= 0.18274E+01
  rms(prec ) = 0.19881E+01
  weight for this iteration     100.00

 eigenvalues of (default mixing * dielectric matrix)
  average eigenvalue GAMMA=   0.4142
  0.7834  0.7834  0.4827  0.1210  0.2588  0.2588  0.2113

 Free energy of the ion-electron system (eV)
  ---------------------------------------------------
  alpha Z        PSCENC =       365.83378985
  Ewald energy   TEWEN  =     95338.92795248
  -1/2 Hartree   DENC   =   -110320.26545850
  -exchange  EXHF       =         0.00000000
  -V(xc)+E(xc)   XCENC  =       568.52298166
  PAW double counting   =     12388.97332060   -12260.01757176
  entropy T*S    EENTRO =        -0.02139484
  eigenvalues    EBANDS =     -2163.06787475
  atomic energy  EATOM  =     15821.58433428
  ---------------------------------------------------
  free energy    TOTEN  =      -259.52992097 eV

  energy without entropy =     -259.50852614  energy(sigma->0) =     -259.52278936


--------------------------------------------------------------------------------------------------------




----------------------------------------- Iteration    1(  13)  ---------------------------------------


    POTLOK:  cpu time    0.07: real time    0.07
    SETDIJ:  cpu time    0.01: real time    0.01
     EDDAV:  cpu time    3.98: real time    3.99
       DOS:  cpu time    0.00: real time    0.00
    CHARGE:  cpu time    0.10: real time    0.10
    MIXING:  cpu time    0.00: real time    0.00
    --------------------------------------------
      LOOP:  cpu time    4.18: real time    4.25

 eigenvalue-minimisations  :  2024
 total energy-change (2. order) : 0.3974296E+00  (-0.7121967E+00)
 number of electron     234.9999813 magnetization      -0.0074821
 augmentation part       67.0375584 magnetization       0.2041651

 Broyden mixing:
  rms(total) = 0.16408E+01    rms(broyden)= 0.16403E+01
  rms(prec ) = 0.18206E+01
  weight for this iteration     100.00

 eigenvalues of (default mixing * dielectric matrix)
  average eigenvalue GAMMA=   0.4584
  1.0568  1.0568  0.4425  0.2846  0.2846  0.1209  0.2107  0.2107

 Free energy of the ion-electron system (eV)
  ---------------------------------------------------
  alpha Z        PSCENC =       365.83378985
  Ewald energy   TEWEN  =     95338.92795248
  -1/2 Hartree   DENC   =   -110329.97870822
  -exchange  EXHF       =         0.00000000
  -V(xc)+E(xc)   XCENC  =       570.04218974
  PAW double counting   =     12424.98552687   -12295.26147951
  entropy T*S    EENTRO =         0.00019347
  eigenvalues    EBANDS =     -2155.26629032
  atomic energy  EATOM  =     15821.58433428
  ---------------------------------------------------
  free energy    TOTEN  =      -259.13249135 eV

  energy without entropy =     -259.13268483  energy(sigma->0) =     -259.13255584


--------------------------------------------------------------------------------------------------------




----------------------------------------- Iteration    1(  14)  ---------------------------------------


    POTLOK:  cpu time    0.07: real time    0.07
    SETDIJ:  cpu time    0.01: real time    0.01
     EDDAV:  cpu time    4.05: real time    4.05
       DOS:  cpu time    0.00: real time    0.00
    CHARGE:  cpu time    0.10: real time    0.10
    MIXING:  cpu time    0.00: real time    0.00
    --------------------------------------------
      LOOP:  cpu time    4.24: real time    4.45

 eigenvalue-minimisations  :  2064
 total energy-change (2. order) : 0.2048960E+01  (-0.6252633E+00)
 number of electron     234.9999809 magnetization      -0.0210360
 augmentation part       67.9907812 magnetization       0.2906738

 Broyden mixing:
  rms(total) = 0.10157E+01    rms(broyden)= 0.10141E+01
  rms(prec ) = 0.11108E+01
  weight for this iteration     100.00

 eigenvalues of (default mixing * dielectric matrix)
  average eigenvalue GAMMA=   0.4560
  1.1661  1.1661  0.4141  0.3158  0.3158  0.2248  0.2248  0.1209  0.1554

 Free energy of the ion-electron system (eV)
  ---------------------------------------------------
  alpha Z        PSCENC =       365.83378985
  Ewald energy   TEWEN  =     95338.92795248
  -1/2 Hartree   DENC   =   -110280.63271570
  -exchange  EXHF       =         0.00000000
  -V(xc)+E(xc)   XCENC  =       575.71010337
  PAW double counting   =     12556.89845140   -12425.08102721
  entropy T*S    EENTRO =         0.00249816
  eigenvalues    EBANDS =     -2210.32691825
  atomic energy  EATOM  =     15821.58433428
  ---------------------------------------------------
  free energy    TOTEN  =      -257.08353161 eV

  energy without entropy =     -257.08602977  energy(sigma->0) =     -257.08436433


--------------------------------------------------------------------------------------------------------




----------------------------------------- Iteration    1(  15)  ---------------------------------------


    POTLOK:  cpu time    0.07: real time    0.07
    SETDIJ:  cpu time    0.01: real time    0.01
     EDDAV:  cpu time    3.95: real time    3.95
       DOS:  cpu time    0.00: real time    0.00
    CHARGE:  cpu time    0.10: real time    0.10
    MIXING:  cpu time    0.00: real time    0.00
    --------------------------------------------
      LOOP:  cpu time    4.14: real time    4.22

 eigenvalue-minimisations  :  2000
 total energy-change (2. order) : 0.4875294E+00  (-0.2105853E+00)
 number of electron     234.9999816 magnetization      -0.0276588
 augmentation part       68.3652224 magnetization       0.0419074

 Broyden mixing:
  rms(total) = 0.78484E+00    rms(broyden)= 0.78433E+00
  rms(prec ) = 0.90851E+00
  weight for this iteration     100.00

 eigenvalues of (default mixing * dielectric matrix)
  average eigenvalue GAMMA=   0.5097
  1.3543  1.3543  0.4665  0.4665  0.3748  0.1209  0.2586  0.2586  0.2211  0.2211

 Free energy of the ion-electron system (eV)
  ---------------------------------------------------
  alpha Z        PSCENC =       365.83378985
  Ewald energy   TEWEN  =     95338.92795248
  -1/2 Hartree   DENC   =   -110276.61332909
  -exchange  EXHF       =         0.00000000
  -V(xc)+E(xc)   XCENC  =       578.34244115
  PAW double counting   =     12609.63746563   -12477.29539952
  entropy T*S    EENTRO =         0.01012047
  eigenvalues    EBANDS =     -2217.02337743
  atomic energy  EATOM  =     15821.58433428
  ---------------------------------------------------
  free energy    TOTEN  =      -256.59600217 eV

  energy without entropy =     -256.60612264  energy(sigma->0) =     -256.59937566


--------------------------------------------------------------------------------------------------------




----------------------------------------- Iteration    1(  16)  ---------------------------------------


    POTLOK:  cpu time    0.07: real time    0.07
    SETDIJ:  cpu time    0.01: real time    0.01
     EDDAV:  cpu time    4.12: real time    4.12
       DOS:  cpu time    0.00: real time    0.00
    CHARGE:  cpu time    0.10: real time    0.10
    MIXING:  cpu time    0.00: real time    0.00
    --------------------------------------------
      LOOP:  cpu time    4.31: real time    4.40

 eigenvalue-minimisations  :  2104
 total energy-change (2. order) : 0.5098811E-01  (-0.4459044E+00)
 number of electron     234.9999804 magnetization      -0.0246957
 augmentation part       68.7080616 magnetization      -0.4138729

 Broyden mixing:
  rms(total) = 0.10753E+01    rms(broyden)= 0.10737E+01
  rms(prec ) = 0.11136E+01
  weight for this iteration     100.00

 eigenvalues of (default mixing * dielectric matrix)
  average eigenvalue GAMMA=   0.4645
  1.3546  1.3546  0.4660  0.4660  0.3763  0.1209  0.2591  0.2591  0.2215  0.2215
  0.0105

 Free energy of the ion-electron system (eV)
  ---------------------------------------------------
  alpha Z        PSCENC =       365.83378985
  Ewald energy   TEWEN  =     95338.92795248
  -1/2 Hartree   DENC   =   -110259.76005014
  -exchange  EXHF       =         0.00000000
  -V(xc)+E(xc)   XCENC  =       580.67397530
  PAW double counting   =     12656.41614431   -12524.23991694
  entropy T*S    EENTRO =         0.01708249
  eigenvalues    EBANDS =     -2235.99832569
  atomic energy  EATOM  =     15821.58433428
  ---------------------------------------------------
  free energy    TOTEN  =      -256.54501406 eV

  energy without entropy =     -256.56209655  energy(sigma->0) =     -256.55070823


--------------------------------------------------------------------------------------------------------




----------------------------------------- Iteration    1(  17)  ---------------------------------------


    POTLOK:  cpu time    0.07: real time    0.07
    SETDIJ:  cpu time    0.01: real time    0.01
     EDDAV:  cpu time    3.14: real time    3.14
       DOS:  cpu time    0.00: real time    0.00
    CHARGE:  cpu time    0.10: real time    0.10
    MIXING:  cpu time    0.00: real time    0.00
    --------------------------------------------
      LOOP:  cpu time    3.33: real time    3.41

 eigenvalue-minimisations  :  1504
 total energy-change (2. order) : 0.7207976E-02  (-0.2528283E-01)
 number of electron     234.9999805 magnetization      -0.0140669
 augmentation part       68.6819529 magnetization      -0.3553063

 Broyden mixing:
  rms(total) = 0.10293E+01    rms(broyden)= 0.10292E+01
  rms(prec ) = 0.10666E+01
  weight for this iteration     100.00

 eigenvalues of (default mixing * dielectric matrix)
  average eigenvalue GAMMA=   0.4623
  1.3599  1.3599  0.4584  0.4584  0.3830  0.1209  0.2465  0.2465  0.2256  0.2256
  0.2314  0.2314

 Free energy of the ion-electron system (eV)
  ---------------------------------------------------
  alpha Z        PSCENC =       365.83378985
  Ewald energy   TEWEN  =     95338.92795248
  -1/2 Hartree   DENC   =   -110260.81824337
  -exchange  EXHF       =         0.00000000
  -V(xc)+E(xc)   XCENC  =       580.63232614
  PAW double counting   =     12656.03695539   -12523.92952882
  entropy T*S    EENTRO =         0.01789176
  eigenvalues    EBANDS =     -2234.82328380
  atomic energy  EATOM  =     15821.58433428
  ---------------------------------------------------
  free energy    TOTEN  =      -256.53780609 eV

  energy without entropy =     -256.55569785  energy(sigma->0) =     -256.54377001


--------------------------------------------------------------------------------------------------------




----------------------------------------- Iteration    1(  18)  ---------------------------------------


    POTLOK:  cpu time    0.07: real time    0.07
    SETDIJ:  cpu time    0.01: real time    0.01
     EDDAV:  cpu time    4.07: real time    4.07
       DOS:  cpu time    0.00: real time    0.00
    CHARGE:  cpu time    0.10: real time    0.10
    MIXING:  cpu time    0.00: real time    0.00
    --------------------------------------------
      LOOP:  cpu time    4.26: real time    4.45

 eigenvalue-minimisations  :  2072
 total energy-change (2. order) : 0.1751624E+00  (-0.1382198E-01)
 number of electron     234.9999802 magnetization       0.0211693
 augmentation part       68.6558690 magnetization      -0.3542647

 Broyden mixing:
  rms(total) = 0.96689E+00    rms(broyden)= 0.96686E+00
  rms(prec ) = 0.10016E+01
  weight for this iteration     100.00

 eigenvalues of (default mixing * dielectric matrix)
  average eigenvalue GAMMA=   0.5492
  1.4984  1.4984  0.8087  0.8087  0.4303  0.4303  0.3564  0.1209  0.2617  0.2617
  0.2098  0.2098  0.2443

 Free energy of the ion-electron system (eV)
  ---------------------------------------------------
  alpha Z        PSCENC =       365.83378985
  Ewald energy   TEWEN  =     95338.92795248
  -1/2 Hartree   DENC   =   -110261.56062122
  -exchange  EXHF       =         0.00000000
  -V(xc)+E(xc)   XCENC  =       580.83771966
  PAW double counting   =     12657.31941195   -12525.34424896
  entropy T*S    EENTRO =         0.02860121
  eigenvalues    EBANDS =     -2233.98958293
  atomic energy  EATOM  =     15821.58433428
  ---------------------------------------------------
  free energy    TOTEN  =      -256.36264368 eV

  energy without entropy =     -256.39124490  energy(sigma->0) =     -256.37217742


--------------------------------------------------------------------------------------------------------




----------------------------------------- Iteration    1(  19)  ---------------------------------------


    POTLOK:  cpu time    0.07: real time    0.08
    SETDIJ:  cpu time    0.01: real time    0.01
     EDDAV:  cpu time    3.91: real time    3.92
       DOS:  cpu time    0.00: real time    0.00
    CHARGE:  cpu time    0.10: real time    0.10
    MIXING:  cpu time    0.00: real time    0.00
    --------------------------------------------
      LOOP:  cpu time    4.11: real time    4.30

 eigenvalue-minimisations  :  1976
 total energy-change (2. order) : 0.3877589E+00  (-0.3770330E-01)
 number of electron     234.9999798 magnetization       0.0486652
 augmentation part       68.6906149 magnetization      -0.3537761

 Broyden mixing:
  rms(total) = 0.81409E+00    rms(broyden)= 0.81397E+00
  rms(prec ) = 0.84879E+00
  weight for this iteration     100.00

 eigenvalues of (default mixing * dielectric matrix)
  average eigenvalue GAMMA=   0.5655
  1.5201  1.5201  0.9305  0.9305  0.5126  0.5126  0.3463  0.3147  0.3147  0.1209
  0.2398  0.2398  0.2070  0.2070

 Free energy of the ion-electron system (eV)
  ---------------------------------------------------
  alpha Z        PSCENC =       365.83378985
  Ewald energy   TEWEN  =     95338.92795248
  -1/2 Hartree   DENC   =   -110267.83172097
  -exchange  EXHF       =         0.00000000
  -V(xc)+E(xc)   XCENC  =       581.98470667
  PAW double counting   =     12676.68962419   -12545.15252866
  entropy T*S    EENTRO =         0.00076781
  eigenvalues    EBANDS =     -2228.01181038
  atomic energy  EATOM  =     15821.58433428
  ---------------------------------------------------
  free energy    TOTEN  =      -255.97488474 eV

  energy without entropy =     -255.97565255  energy(sigma->0) =     -255.97514068


--------------------------------------------------------------------------------------------------------




----------------------------------------- Iteration    1(  20)  ---------------------------------------


    POTLOK:  cpu time    0.07: real time    0.08
    SETDIJ:  cpu time    0.01: real time    0.01
     EDDAV:  cpu time    3.97: real time    3.98
       DOS:  cpu time    0.00: real time    0.00
    CHARGE:  cpu time    0.10: real time    0.10
    MIXING:  cpu time    0.00: real time    0.00
    --------------------------------------------
      LOOP:  cpu time    4.17: real time    4.24

 eigenvalue-minimisations  :  2016
 total energy-change (2. order) :-0.7222037E-01  (-0.2753940E-01)
 number of electron     234.9999798 magnetization       0.1052171
 augmentation part       68.7454551 magnetization      -0.3131210

 Broyden mixing:
  rms(total) = 0.69682E+00    rms(broyden)= 0.69677E+00
  rms(prec ) = 0.73245E+00
  weight for this iteration     100.00

 eigenvalues of (default mixing * dielectric matrix)
  average eigenvalue GAMMA=   0.6267
  1.5732  1.5732  1.2483  1.2483  0.6409  0.6409  0.3802  0.3802  0.3464  0.3464
  0.1209  0.2429  0.2429  0.2080  0.2080

 Free energy of the ion-electron system (eV)
  ---------------------------------------------------
  alpha Z        PSCENC =       365.83378985
  Ewald energy   TEWEN  =     95338.92795248
  -1/2 Hartree   DENC   =   -110273.47789313
  -exchange  EXHF       =         0.00000000
  -V(xc)+E(xc)   XCENC  =       582.80198764
  PAW double counting   =     12700.57916491   -12569.42298052
  entropy T*S    EENTRO =        -0.00169110
  eigenvalues    EBANDS =     -2222.87176953
  atomic energy  EATOM  =     15821.58433428
  ---------------------------------------------------
  free energy    TOTEN  =      -256.04710511 eV

  energy without entropy =     -256.04541401  energy(sigma->0) =     -256.04654141


--------------------------------------------------------------------------------------------------------




----------------------------------------- Iteration    1(  21)  ---------------------------------------


    POTLOK:  cpu time    0.07: real time    0.07
    SETDIJ:  cpu time    0.01: real time    0.01
     EDDAV:  cpu time    3.80: real time    3.80
       DOS:  cpu time    0.00: real time    0.00
    CHARGE:  cpu time    0.10: real time    0.10
    MIXING:  cpu time    0.01: real time    0.00
    --------------------------------------------
      LOOP:  cpu time    3.99: real time    4.07

 eigenvalue-minimisations  :  1912
 total energy-change (2. order) :-0.2026111E+00  (-0.4640356E-01)
 number of electron     234.9999802 magnetization       0.1425137
 augmentation part       68.7818019 magnetization      -0.2451361

 Broyden mixing:
  rms(total) = 0.45560E+00    rms(broyden)= 0.45543E+00
  rms(prec ) = 0.47734E+00
  weight for this iteration     100.00

 eigenvalues of (default mixing * dielectric matrix)
  average eigenvalue GAMMA=   0.6311
  1.7105  1.7105  1.2177  1.2177  0.6589  0.6589  0.4360  0.4360  0.3430  0.3430
  0.3454  0.1209  0.2421  0.2421  0.2078  0.2078

 Free energy of the ion-electron system (eV)
  ---------------------------------------------------
  alpha Z        PSCENC =       365.83378985
  Ewald energy   TEWEN  =     95338.92795248
  -1/2 Hartree   DENC   =   -110288.74222840
  -exchange  EXHF       =         0.00000000
  -V(xc)+E(xc)   XCENC  =       583.66274175
  PAW double counting   =     12734.88581624   -12604.57064826
  entropy T*S    EENTRO =         0.00623568
  eigenvalues    EBANDS =     -2207.83770985
  atomic energy  EATOM  =     15821.58433428
  ---------------------------------------------------
  free energy    TOTEN  =      -256.24971622 eV

  energy without entropy =     -256.25595190  energy(sigma->0) =     -256.25179478


--------------------------------------------------------------------------------------------------------




----------------------------------------- Iteration    1(  22)  ---------------------------------------


    POTLOK:  cpu time    0.07: real time    0.07
    SETDIJ:  cpu time    0.01: real time    0.01
     EDDAV:  cpu time    3.52: real time    3.53
       DOS:  cpu time    0.00: real time    0.00
    CHARGE:  cpu time    0.10: real time    0.10
    MIXING:  cpu time    0.00: real time    0.00
    --------------------------------------------
      LOOP:  cpu time    3.72: real time    3.81

 eigenvalue-minimisations  :  1744
 total energy-change (2. order) : 0.1042392E+00  (-0.1699821E-01)
 number of electron     234.9999802 magnetization       0.1811821
 augmentation part       68.7947779 magnetization      -0.1685208

 Broyden mixing:
  rms(total) = 0.33111E+00    rms(broyden)= 0.33103E+00
  rms(prec ) = 0.35185E+00
  weight for this iteration     100.00

 eigenvalues of (default mixing * dielectric matrix)
  average eigenvalue GAMMA=   0.6454
  1.8691  1.8691  1.1610  1.1610  0.7443  0.7443  0.4918  0.4918  0.3632  0.3632
  0.3461  0.3461  0.1209  0.2425  0.2425  0.2079  0.2079

 Free energy of the ion-electron system (eV)
  ---------------------------------------------------
  alpha Z        PSCENC =       365.83378985
  Ewald energy   TEWEN  =     95338.92795248
  -1/2 Hartree   DENC   =   -110296.59652513
  -exchange  EXHF       =         0.00000000
  -V(xc)+E(xc)   XCENC  =       584.09176350
  PAW double counting   =     12748.50786621   -12618.77301400
  entropy T*S    EENTRO =        -0.01439232
  eigenvalues    EBANDS =     -2199.70725187
  atomic energy  EATOM  =     15821.58433428
  ---------------------------------------------------
  free energy    TOTEN  =      -256.14547698 eV

  energy without entropy =     -256.13108466  energy(sigma->0) =     -256.14067954


--------------------------------------------------------------------------------------------------------




----------------------------------------- Iteration    1(  23)  ---------------------------------------


    POTLOK:  cpu time    0.07: real time    0.07
    SETDIJ:  cpu time    0.01: real time    0.01
     EDDAV:  cpu time    3.85: real time    3.85
       DOS:  cpu time    0.00: real time    0.00
    CHARGE:  cpu time    0.10: real time    0.10
    MIXING:  cpu time    0.00: real time    0.01
    --------------------------------------------
      LOOP:  cpu time    4.05: real time    4.11

 eigenvalue-minimisations  :  1944
 total energy-change (2. order) :-0.3158466E-01  (-0.1282850E-01)
 number of electron     234.9999805 magnetization       0.1993915
 augmentation part       68.7197572 magnetization      -0.0812868

 Broyden mixing:
  rms(total) = 0.22460E+00    rms(broyden)= 0.22417E+00
  rms(prec ) = 0.23906E+00
  weight for this iteration     100.00

 eigenvalues of (default mixing * dielectric matrix)
  average eigenvalue GAMMA=   0.6462
  1.8609  1.8609  1.1150  1.1150  0.8837  0.8837  0.5574  0.5574  0.3737  0.3737
  0.1209  0.3555  0.3555  0.2079  0.2079  0.2426  0.2426  0.3180

 Free energy of the ion-electron system (eV)
  ---------------------------------------------------
  alpha Z        PSCENC =       365.83378985
  Ewald energy   TEWEN  =     95338.92795248
  -1/2 Hartree   DENC   =   -110306.83378128
  -exchange  EXHF       =         0.00000000
  -V(xc)+E(xc)   XCENC  =       584.09245816
  PAW double counting   =     12756.10226547   -12626.84443168
  entropy T*S    EENTRO =        -0.02232877
  eigenvalues    EBANDS =     -2189.01732016
  atomic energy  EATOM  =     15821.58433428
  ---------------------------------------------------
  free energy    TOTEN  =      -256.17706164 eV

  energy without entropy =     -256.15473287  energy(sigma->0) =     -256.16961872


--------------------------------------------------------------------------------------------------------




----------------------------------------- Iteration    1(  24)  ---------------------------------------


    POTLOK:  cpu time    0.07: real time    0.08
    SETDIJ:  cpu time    0.01: real time    0.01
     EDDAV:  cpu time    3.71: real time    3.72
       DOS:  cpu time    0.00: real time    0.00
    CHARGE:  cpu time    0.10: real time    0.10
    MIXING:  cpu time    0.01: real time    0.01
    --------------------------------------------
      LOOP:  cpu time    3.91: real time    3.98

 eigenvalue-minimisations  :  1864
 total energy-change (2. order) :-0.4080749E-01  (-0.8987530E-02)
 number of electron     234.9999806 magnetization       0.2221230
 augmentation part       68.7027584 magnetization      -0.1820821

 Broyden mixing:
  rms(total) = 0.20927E+00    rms(broyden)= 0.20905E+00
  rms(prec ) = 0.22750E+00
  weight for this iteration     100.00

 eigenvalues of (default mixing * dielectric matrix)
  average eigenvalue GAMMA=   0.6385
  1.8901  1.8901  1.0869  1.0869  0.9185  0.9185  0.5365  0.5365  0.4323  0.4323
  0.1209  0.3467  0.3467  0.3436  0.3436  0.2425  0.2425  0.2079  0.2079

 Free energy of the ion-electron system (eV)
  ---------------------------------------------------
  alpha Z        PSCENC =       365.83378985
  Ewald energy   TEWEN  =     95338.92795248
  -1/2 Hartree   DENC   =   -110309.42433782
  -exchange  EXHF       =         0.00000000
  -V(xc)+E(xc)   XCENC  =       584.05855114
  PAW double counting   =     12760.18354170   -12631.06746310
  entropy T*S    EENTRO =        -0.02372672
  eigenvalues    EBANDS =     -2186.29051093
  atomic energy  EATOM  =     15821.58433428
  ---------------------------------------------------
  free energy    TOTEN  =      -256.21786912 eV

  energy without entropy =     -256.19414240  energy(sigma->0) =     -256.20996021


--------------------------------------------------------------------------------------------------------




----------------------------------------- Iteration    1(  25)  ---------------------------------------


    POTLOK:  cpu time    0.07: real time    0.08
    SETDIJ:  cpu time    0.01: real time    0.01
     EDDAV:  cpu time    3.67: real time    3.68
       DOS:  cpu time    0.00: real time    0.00
    CHARGE:  cpu time    0.10: real time    0.10
    MIXING:  cpu time    0.01: real time    0.01
    --------------------------------------------
      LOOP:  cpu time    3.87: real time    3.96

 eigenvalue-minimisations  :  1840
 total energy-change (2. order) :-0.1485203E+00  (-0.3907081E-02)
 number of electron     234.9999807 magnetization       0.2784861
 augmentation part       68.7229423 magnetization      -0.1111474

 Broyden mixing:
  rms(total) = 0.16431E+00    rms(broyden)= 0.16428E+00
  rms(prec ) = 0.18387E+00
  weight for this iteration     100.00

 eigenvalues of (default mixing * dielectric matrix)
  average eigenvalue GAMMA=   0.6842
  1.8027  1.8027  1.6481  1.0868  0.9892  0.9892  0.7010  0.7010  0.5719  0.5719
  0.1209  0.3639  0.3639  0.2079  0.2079  0.2425  0.2425  0.3693  0.3504  0.3504

 Free energy of the ion-electron system (eV)
  ---------------------------------------------------
  alpha Z        PSCENC =       365.83378985
  Ewald energy   TEWEN  =     95338.92795248
  -1/2 Hartree   DENC   =   -110311.57275224
  -exchange  EXHF       =         0.00000000
  -V(xc)+E(xc)   XCENC  =       583.99016578
  PAW double counting   =     12765.90843986   -12636.92409284
  entropy T*S    EENTRO =        -0.02293086
  eigenvalues    EBANDS =     -2184.09129576
  atomic energy  EATOM  =     15821.58433428
  ---------------------------------------------------
  free energy    TOTEN  =      -256.36638945 eV

  energy without entropy =     -256.34345858  energy(sigma->0) =     -256.35874583


--------------------------------------------------------------------------------------------------------




----------------------------------------- Iteration    1(  26)  ---------------------------------------


    POTLOK:  cpu time    0.07: real time    0.07
    SETDIJ:  cpu time    0.01: real time    0.01
     EDDAV:  cpu time    3.78: real time    3.78
       DOS:  cpu time    0.00: real time    0.00
    CHARGE:  cpu time    0.10: real time    0.10
    MIXING:  cpu time    0.01: real time    0.01
    --------------------------------------------
      LOOP:  cpu time    3.97: real time    4.06

 eigenvalue-minimisations  :  1904
 total energy-change (2. order) :-0.2621248E+00  (-0.5647093E-02)
 number of electron     234.9999806 magnetization       0.3099221
 augmentation part       68.7350423 magnetization      -0.0175737

 Broyden mixing:
  rms(total) = 0.15158E+00    rms(broyden)= 0.15148E+00
  rms(prec ) = 0.16634E+00
  weight for this iteration     100.00

 eigenvalues of (default mixing * dielectric matrix)
  average eigenvalue GAMMA=   0.6923
  1.8973  1.8973  1.8420  1.1239  0.9186  0.9186  0.6643  0.6643  0.6344  0.6344
  0.4571  0.4571  0.1209  0.3608  0.3608  0.3428  0.3428  0.2079  0.2079  0.2425
  0.2425

 Free energy of the ion-electron system (eV)
  ---------------------------------------------------
  alpha Z        PSCENC =       365.83378985
  Ewald energy   TEWEN  =     95338.92795248
  -1/2 Hartree   DENC   =   -110317.70206368
  -exchange  EXHF       =         0.00000000
  -V(xc)+E(xc)   XCENC  =       583.81216720
  PAW double counting   =     12773.44187768   -12644.72741356
  entropy T*S    EENTRO =        -0.02012977
  eigenvalues    EBANDS =     -2177.77902868
  atomic energy  EATOM  =     15821.58433428
  ---------------------------------------------------
  free energy    TOTEN  =      -256.62851420 eV

  energy without entropy =     -256.60838443  energy(sigma->0) =     -256.62180428


--------------------------------------------------------------------------------------------------------




----------------------------------------- Iteration    1(  27)  ---------------------------------------


    POTLOK:  cpu time    0.07: real time    0.08
    SETDIJ:  cpu time    0.01: real time    0.01
     EDDAV:  cpu time    3.54: real time    3.55
       DOS:  cpu time    0.00: real time    0.00
    CHARGE:  cpu time    0.10: real time    0.10
    MIXING:  cpu time    0.01: real time    0.01
    --------------------------------------------
      LOOP:  cpu time    3.74: real time    3.82

 eigenvalue-minimisations  :  1760
 total energy-change (2. order) :-0.1958850E+00  (-0.3850231E-02)
 number of electron     234.9999804 magnetization       0.3494629
 augmentation part       68.7371087 magnetization      -0.0438846

 Broyden mixing:
  rms(total) = 0.13453E+00    rms(broyden)= 0.13437E+00
  rms(prec ) = 0.14150E+00
  weight for this iteration     100.00

 eigenvalues of (default mixing * dielectric matrix)
  average eigenvalue GAMMA=   0.7024
  1.9407  1.9407  1.4378  1.4378  0.9223  0.9223  0.7710  0.7710  0.6535  0.6535
  0.5733  0.5733  0.1209  0.4189  0.3608  0.3608  0.3466  0.3466  0.2079  0.2079
  0.2425  0.2425

 Free energy of the ion-electron system (eV)
  ---------------------------------------------------
  alpha Z        PSCENC =       365.83378985
  Ewald energy   TEWEN  =     95338.92795248
  -1/2 Hartree   DENC   =   -110320.34412367
  -exchange  EXHF       =         0.00000000
  -V(xc)+E(xc)   XCENC  =       583.56864628
  PAW double counting   =     12774.42477667   -12645.77904724
  entropy T*S    EENTRO =        -0.02518361
  eigenvalues    EBANDS =     -2175.01554424
  atomic energy  EATOM  =     15821.58433428
  ---------------------------------------------------
  free energy    TOTEN  =      -256.82439920 eV

  energy without entropy =     -256.79921559  energy(sigma->0) =     -256.81600466


--------------------------------------------------------------------------------------------------------




----------------------------------------- Iteration    1(  28)  ---------------------------------------


    POTLOK:  cpu time    0.07: real time    0.07
    SETDIJ:  cpu time    0.01: real time    0.01
     EDDAV:  cpu time    3.42: real time    3.43
       DOS:  cpu time    0.00: real time    0.00
    CHARGE:  cpu time    0.10: real time    0.10
    MIXING:  cpu time    0.01: real time    0.01
    --------------------------------------------
      LOOP:  cpu time    3.62: real time    3.70

 eigenvalue-minimisations  :  1688
 total energy-change (2. order) :-0.1883089E+00  (-0.3429680E-02)
 number of electron     234.9999804 magnetization       0.3814255
 augmentation part       68.7120746 magnetization       0.0293141

 Broyden mixing:
  rms(total) = 0.10697E+00    rms(broyden)= 0.10692E+00
  rms(prec ) = 0.11177E+00
  weight for this iteration     100.00

 eigenvalues of (default mixing * dielectric matrix)
  average eigenvalue GAMMA=   0.7248
  2.0064  2.0064  1.4490  1.4490  1.1745  1.1745  0.7870  0.7870  0.6605  0.6605
  0.5903  0.5903  0.1209  0.4498  0.4498  0.3609  0.3609  0.2079  0.2079  0.2425
  0.2425  0.3454  0.3454

 Free energy of the ion-electron system (eV)
  ---------------------------------------------------
  alpha Z        PSCENC =       365.83378985
  Ewald energy   TEWEN  =     95338.92795248
  -1/2 Hartree   DENC   =   -110325.67363665
  -exchange  EXHF       =         0.00000000
  -V(xc)+E(xc)   XCENC  =       583.29310538
  PAW double counting   =     12774.47216567   -12646.01411201
  entropy T*S    EENTRO =        -0.02933359
  eigenvalues    EBANDS =     -2169.40697348
  atomic energy  EATOM  =     15821.58433428
  ---------------------------------------------------
  free energy    TOTEN  =      -257.01270807 eV

  energy without entropy =     -256.98337448  energy(sigma->0) =     -257.00293020


--------------------------------------------------------------------------------------------------------




----------------------------------------- Iteration    1(  29)  ---------------------------------------


    POTLOK:  cpu time    0.07: real time    0.07
    SETDIJ:  cpu time    0.01: real time    0.01
     EDDAV:  cpu time    3.54: real time    3.55
       DOS:  cpu time    0.00: real time    0.00
    CHARGE:  cpu time    0.10: real time    0.10
    MIXING:  cpu time    0.01: real time    0.01
    --------------------------------------------
      LOOP:  cpu time    3.74: real time    3.84

 eigenvalue-minimisations  :  1760
 total energy-change (2. order) :-0.1676282E+00  (-0.4913313E-02)
 number of electron     234.9999804 magnetization       0.4005485
 augmentation part       68.6949583 magnetization       0.1322466

 Broyden mixing:
  rms(total) = 0.11414E+00    rms(broyden)= 0.11391E+00
  rms(prec ) = 0.11846E+00
  weight for this iteration     100.00

 eigenvalues of (default mixing * dielectric matrix)
  average eigenvalue GAMMA=   0.7212
  2.1139  2.1139  1.4455  1.4455  1.2274  1.2274  0.6651  0.6651  0.7476  0.7476
  0.5440  0.5440  0.4998  0.4998  0.1209  0.3615  0.3615  0.2079  0.2079  0.2425
  0.2425  0.3457  0.3457  0.3871

 Free energy of the ion-electron system (eV)
  ---------------------------------------------------
  alpha Z        PSCENC =       365.83378985
  Ewald energy   TEWEN  =     95338.92795248
  -1/2 Hartree   DENC   =   -110328.94646279
  -exchange  EXHF       =         0.00000000
  -V(xc)+E(xc)   XCENC  =       583.13212288
  PAW double counting   =     12774.18148293   -12645.72701054
  entropy T*S    EENTRO =        -0.02804237
  eigenvalues    EBANDS =     -2166.13850302
  atomic energy  EATOM  =     15821.58433428
  ---------------------------------------------------
  free energy    TOTEN  =      -257.18033629 eV

  energy without entropy =     -257.15229392  energy(sigma->0) =     -257.17098883


--------------------------------------------------------------------------------------------------------




----------------------------------------- Iteration    1(  30)  ---------------------------------------


    POTLOK:  cpu time    0.07: real time    0.07
    SETDIJ:  cpu time    0.01: real time    0.01
     EDDAV:  cpu time    3.46: real time    3.46
       DOS:  cpu time    0.00: real time    0.00
    CHARGE:  cpu time    0.10: real time    0.10
    MIXING:  cpu time    0.01: real time    0.01
    --------------------------------------------
      LOOP:  cpu time    3.66: real time    3.86

 eigenvalue-minimisations  :  1712
 total energy-change (2. order) :-0.1163475E+00  (-0.2397399E-02)
 number of electron     234.9999804 magnetization       0.4000042
 augmentation part       68.6900519 magnetization       0.1491929

 Broyden mixing:
  rms(total) = 0.14214E+00    rms(broyden)= 0.14194E+00
  rms(prec ) = 0.15043E+00
  weight for this iteration     100.00

 eigenvalues of (default mixing * dielectric matrix)
  average eigenvalue GAMMA=   0.7014
  2.1118  2.1118  1.4377  1.4377  1.2297  1.2297  0.6699  0.6699  0.7513  0.7513
  0.5354  0.5354  0.5413  0.5413  0.1209  0.3614  0.3614  0.2079  0.2079  0.2425
  0.2425  0.4051  0.3456  0.3456  0.1394

 Free energy of the ion-electron system (eV)
  ---------------------------------------------------
  alpha Z        PSCENC =       365.83378985
  Ewald energy   TEWEN  =     95338.92795248
  -1/2 Hartree   DENC   =   -110330.82691320
  -exchange  EXHF       =         0.00000000
  -V(xc)+E(xc)   XCENC  =       583.02129422
  PAW double counting   =     12774.47054702   -12646.01797664
  entropy T*S    EENTRO =        -0.02811153
  eigenvalues    EBANDS =     -2164.26160032
  atomic energy  EATOM  =     15821.58433428
  ---------------------------------------------------
  free energy    TOTEN  =      -257.29668382 eV

  energy without entropy =     -257.26857229  energy(sigma->0) =     -257.28731331


--------------------------------------------------------------------------------------------------------




----------------------------------------- Iteration    1(  31)  ---------------------------------------


    POTLOK:  cpu time    0.07: real time    0.07
    SETDIJ:  cpu time    0.01: real time    0.01
     EDDAV:  cpu time    3.25: real time    3.26
       DOS:  cpu time    0.00: real time    0.00
    CHARGE:  cpu time    0.10: real time    0.10
    MIXING:  cpu time    0.01: real time    0.01
    --------------------------------------------
      LOOP:  cpu time    3.45: real time    3.55

 eigenvalue-minimisations  :  1584
 total energy-change (2. order) :-0.2166584E-01  (-0.3774862E-03)
 number of electron     234.9999804 magnetization       0.4340723
 augmentation part       68.6902077 magnetization       0.1725901

 Broyden mixing:
  rms(total) = 0.12264E+00    rms(broyden)= 0.12264E+00
[...]
     32      -8.9762      1.00000
     33      -8.9649      1.00000
     34      -8.7901      1.00000
     35      -8.7708      1.00000
     36      -8.6613      1.00000
     37      -8.4854      1.00000
     38      -8.3212      1.00000
     39      -8.2693      1.00000
     40      -8.2146      1.00000
     41      -8.1921      1.00000
     42      -8.0300      1.00000
     43      -7.8717      1.00000
     44      -7.8543      1.00000
     45      -7.7559      1.00000
     46      -7.7217      1.00000
     47      -7.6798      1.00000
     48      -7.6035      1.00000
     49      -7.5964      1.00000
     50      -7.5748      1.00000
     51      -7.5702      1.00000
     52      -7.5475      1.00000
     53      -7.4793      1.00000
     54      -7.3952      1.00000
     55      -7.3722      1.00000
     56      -7.3075      1.00000
     57      -7.2924      1.00000
     58      -7.2754      1.00000
     59      -7.1577      1.00000
     60      -7.0239      1.00000
     61      -6.9880      1.00000
     62      -6.8779      1.00000
     63      -6.8586      1.00000
     64      -6.7793      1.00000
     65      -6.7192      1.00000
     66      -6.6577      1.00000
     67      -6.5301      1.00000
     68      -6.5002      1.00000
     69      -6.4785      1.00000
     70      -6.4356      1.00000
     71      -6.3969      1.00000
     72      -6.3546      1.00000
     73      -6.3329      1.00000
     74      -6.3043      1.00000
     75      -6.3000      1.00000
     76      -6.1708      1.00000
     77      -6.1559      1.00000
     78      -6.1348      1.00000
     79      -6.0622      1.00000
     80      -5.9916      1.00000
     81      -5.9358      1.00000
     82      -5.8850      1.00000
     83      -5.8420      1.00000
     84      -5.8332      1.00000
     85      -5.7237      1.00000
     86      -5.7125      1.00000
     87      -5.6731      1.00000
     88      -5.6249      1.00000
     89      -5.5537      1.00000
     90      -5.5412      1.00000
     91      -5.4531      1.00000
     92      -5.4044      1.00000
     93      -5.3828      1.00000
     94      -5.2786      1.00000
     95      -5.2706      1.00000
     96      -5.0141      1.00000
     97      -4.9445      1.00000
     98      -4.9072      1.00000
     99      -4.8508      1.00000
    100      -4.8190      1.00000
    101      -4.6985      1.00000
    102      -4.6523      1.00000
    103      -4.6145      1.00000
    104      -4.5203      1.00000
    105      -4.4959      1.00000
    106      -4.4752      1.00000
    107      -4.3427      1.00000
    108      -4.2829      1.00000
    109      -4.1866      1.00000
    110      -4.1230      1.00000
    111      -4.0818      1.00000
    112      -3.9437      1.00000
    113      -3.8997      1.00000
    114      -3.8558      1.00000
    115      -3.7297      1.00000
    116      -3.6915      1.00000
    117      -3.4702      1.00011
    118      -2.7703      0.11491
    119      -2.0505     -0.00000
    120      -1.8696     -0.00000
    121      -1.7285     -0.00000
    122      -1.6875     -0.00000
    123      -1.6790     -0.00000
    124      -1.5336     -0.00000
    125      -1.4901     -0.00000
    126      -1.4425     -0.00000
    127      -1.4169     -0.00000
    128      -1.3707     -0.00000
    129      -1.3220     -0.00000
    130      -0.8235     -0.00000
    131      -0.2535     -0.00000
    132      -0.2228     -0.00000
    133      -0.0398     -0.00000
    134       0.0267     -0.00000
    135       0.0591     -0.00000
    136       0.0739     -0.00000
    137       0.1811     -0.00000
    138       0.2898     -0.00000
    139       0.3099     -0.00000
    140       0.3215     -0.00000
    141       0.3742     -0.00000
    142       0.4359     -0.00000
    143       0.5109     -0.00000
    144       0.5575     -0.00000


--------------------------------------------------------------------------------------------------------


 soft charge-density along one line, spin component           1
         0         1         2         3         4         5         6         7         8         9
 total charge-density along one line
 
 soft charge-density along one line, spin component           2
         0         1         2         3         4         5         6         7         8         9
 total charge-density along one line
 
 pseudopotential strength for first ion, spin component:           1
 24.689   0.019   0.000   0.134   0.185   0.000   0.024   0.033
  0.019   0.025  -0.000   0.002   0.003   0.000   0.000   0.001
  0.000  -0.000  -7.368  -0.000   0.000  -0.180  -0.000   0.000
  0.134   0.002  -0.000  -7.219   0.017  -0.000  -0.157   0.002
  0.185   0.003   0.000   0.017  -7.377   0.000   0.002  -0.182
  0.000   0.000  -0.180  -0.000   0.000   0.171  -0.000   0.000
  0.024   0.000  -0.000  -0.157   0.002  -0.000   0.175   0.000
  0.033   0.001   0.000   0.002  -0.182   0.000   0.000   0.171
 pseudopotential strength for first ion, spin component:           2
 24.663   0.019  -0.000   0.137   0.170  -0.000   0.024   0.030
  0.019   0.025   0.000   0.002   0.003  -0.000   0.000   0.001
 -0.000   0.000  -7.226   0.000  -0.000  -0.157   0.000  -0.000
  0.137   0.002   0.000  -7.351   0.048   0.000  -0.178   0.007
  0.170   0.003  -0.000   0.048  -7.236  -0.000   0.007  -0.159
 -0.000  -0.000  -0.157   0.000  -0.000   0.175   0.000  -0.000
  0.024   0.000   0.000  -0.178   0.007   0.000   0.171   0.001
  0.030   0.001  -0.000   0.007  -0.159  -0.000   0.001   0.174
 total augmentation occupancy for first ion, spin component:           1
  1.878   0.406  -0.000   0.065   0.077  -0.000   0.055   0.083
  0.406   0.425   0.000  -0.294  -0.386   0.000   0.187   0.253
 -0.000   0.000   1.689   0.000   0.000  -0.762   0.000  -0.000
  0.065  -0.294   0.000   1.666   0.023   0.000  -0.724   0.061
  0.077  -0.386   0.000   0.023   1.645  -0.000   0.062  -0.757
 -0.000   0.000  -0.762   0.000  -0.000   0.474  -0.000   0.000
  0.055   0.187   0.000  -0.724   0.062  -0.000   0.440  -0.041
  0.083   0.253  -0.000   0.061  -0.757   0.000  -0.041   0.456
 total augmentation occupancy for first ion, spin component:           2
 -0.001   0.005  -0.000   0.005  -0.018  -0.000  -0.011   0.013
  0.005  -0.031   0.000  -0.018   0.057   0.000   0.033  -0.054
 -0.000   0.000   0.113   0.000  -0.000   0.028   0.000  -0.000
  0.005  -0.018   0.000  -0.144   0.029   0.000  -0.039   0.009
 -0.018   0.057  -0.000   0.029   0.112  -0.000   0.003   0.025
 -0.000   0.000   0.028   0.000  -0.000  -0.059  -0.000   0.000
 -0.011   0.033   0.000  -0.039   0.003  -0.000   0.045  -0.009
  0.013  -0.054  -0.000   0.009   0.025   0.000  -0.009  -0.053


------------------------ aborting loop because EDIFF is reached ----------------------------------------


    CHARGE:  cpu time    0.10: real time    0.10
    FORLOC:  cpu time    0.01: real time    0.01
    FORNL :  cpu time    1.41: real time    1.42
    STRESS:  cpu time    2.00: real time    2.01
    FORCOR:  cpu time    0.07: real time    0.07
    FORHAR:  cpu time    0.01: real time    0.02
    MIXING:  cpu time    0.00: real time    0.00

  FORCE on cell =-STRESS in cart. coord.  units (eV):
  Direction    XX          YY          ZZ          XY          YZ          ZX
  --------------------------------------------------------------------------------------
  Alpha Z   365.83379   365.83379   365.83379
  Ewald  100924.31951106282.82480************    13.12187     3.85769  -115.99391
  Hartree105493.18395109570.20705************     2.30582     0.54582  -181.45119
  E(xc)   -1145.28133 -1146.57246 -1145.86804     0.07500     0.01859     0.09153
  Local  ************************209727.20504   -11.68121    -3.08276   309.76245
  n-local   265.81750   281.26914   267.33192    -0.76378    -0.22186    -0.06104
  augment  1422.33420  1415.41755  1435.47615    -0.57935    -0.19900    -2.48780
  Kinetic  3261.54766  3236.43868  3298.75217    -2.53294    -0.87261    -9.57270
  Fock        0.00000     0.00000     0.00000     0.00000     0.00000     0.00000
  -------------------------------------------------------------------------------------
  Total     -24.59778     9.51168   -21.47444    -0.05459     0.04588     0.28734
  in kB     -43.75520    16.91964   -38.19931    -0.09711     0.08162     0.51113
  external pressure =      -21.68 kB  Pullay stress =        0.00 kB


 VOLUME and BASIS-vectors are now :
 -----------------------------------------------------------------------------
  energy-cutoff  :      367.69
  volume of cell :      900.69
      direct lattice vectors                 reciprocal lattice vectors
    10.307999610  0.000000000  0.000000000     0.097012033  0.000000000  0.000000000
     0.000000000  2.854000090  0.000000000     0.000000000  0.350385413  0.000000000
     0.000000000  0.000000000 30.615999220     0.000000000  0.000000000  0.032662661

  length of vectors
    10.307999610  2.854000090 30.615999220     0.097012033  0.350385413  0.032662661


 FORCES acting on ions
    electron-ion (+dipol)            ewald-force                    non-local-force                 convergence-correction
 -----------------------------------------------------------------------------------------------
   -.254E+03 -.321E-03 -.420E+03   0.281E+03 0.215E-03 0.441E+03   -.283E+02 0.296E-03 -.220E+02   -.958E-03 -.153E-04 0.320E-01
   0.264E+03 -.238E-04 -.868E+03   -.291E+03 -.728E-06 0.847E+03   0.282E+02 0.416E-05 0.206E+02   0.481E-03 0.172E-05 0.330E-01
   0.236E+03 0.241E+00 0.180E+04   -.263E+03 -.407E+00 -.182E+04   0.270E+02 0.169E+00 0.195E+02   0.163E-01 -.149E-02 -.125E-01
   -.330E+01 -.774E-01 0.189E+04   0.125E+02 0.841E-01 -.192E+04   -.916E+01 -.415E-02 0.300E+02   -.292E-01 0.155E-02 -.735E-02
   -.194E+03 -.226E-04 -.949E+03   0.214E+03 -.452E-07 0.923E+03   -.216E+02 0.469E-04 0.269E+02   0.186E-02 0.430E-05 0.233E-01
   0.185E+03 0.118E-02 -.353E+03   -.206E+03 -.419E-02 0.381E+03   0.219E+02 0.451E-02 -.285E+02   0.140E-02 0.119E-04 0.255E-01
   -.293E+03 0.320E-01 0.968E+03   0.320E+03 -.844E-02 -.949E+03   -.273E+02 -.267E-01 -.199E+02   -.255E-01 0.141E-02 0.390E-02
   -.232E+03 0.536E-04 -.174E+04   0.259E+03 -.641E-08 0.176E+04   -.280E+02 -.647E-04 -.211E+02   -.110E-01 -.973E-05 0.433E-01
   0.259E+03 0.570E-02 0.472E+03   -.286E+03 -.488E-02 -.492E+03   0.280E+02 -.858E-03 0.207E+02   -.373E-02 -.275E-04 0.326E-01
   -.190E+03 -.479E-02 0.420E+03   0.211E+03 0.399E-02 -.446E+03   -.219E+02 0.803E-03 0.274E+02   -.794E-03 -.955E-05 0.242E-01
   0.160E+03 0.333E-04 -.170E+04   -.182E+03 -.389E-08 0.173E+04   0.218E+02 -.246E-04 -.279E+02   -.370E-02 -.751E-06 0.163E-01
   0.223E+03 -.105E-01 0.102E+04   -.232E+03 0.105E-01 -.990E+03   0.866E+01 0.209E-02 -.308E+02   -.840E-02 -.503E-03 0.441E-01
   0.500E+02 0.848E-04 -.770E+02   -.580E+02 -.527E-05 0.726E+02   0.821E+01 -.934E-04 0.448E+01   -.758E-03 -.867E-05 0.291E-01
   -.516E+02 -.358E-04 -.120E+04   0.599E+02 -.117E-06 0.120E+04   -.858E+01 0.183E-04 -.499E+01   -.654E-03 0.128E-04 0.282E-01
   -.246E+03 -.511E+00 0.160E+04   0.255E+03 0.559E+00 -.161E+04   -.822E+01 -.439E-01 0.617E+01   -.569E-01 -.156E-02 -.371E-01
   0.880E+02 -.275E-01 0.823E+03   -.855E+02 0.163E-01 -.816E+03   -.241E+01 0.131E-01 -.763E+01   -.129E-01 0.176E-02 0.205E-01
   -.683E+02 0.513E-04 -.198E+04   0.688E+02 -.360E-08 0.200E+04   -.484E+00 -.316E-04 -.249E+02   0.373E-02 -.187E-04 0.145E-01
   0.112E+03 -.111E-04 -.200E+04   -.116E+03 0.251E-08 0.203E+04   0.410E+01 -.197E-04 -.331E+02   0.141E-01 0.110E-04 0.146E-01
   -.124E+03 0.125E+00 0.645E+03   0.126E+03 -.187E+00 -.652E+03   -.219E+01 0.600E-01 0.652E+01   0.383E-02 0.146E-03 0.423E-01
   0.815E+02 -.152E+00 0.136E+04   -.864E+02 0.254E+00 -.137E+04   0.490E+01 -.106E+00 0.862E+01   -.740E-02 0.249E-02 -.147E-01
   0.719E+02 -.462E-04 -.144E+04   -.800E+02 -.104E-06 0.144E+04   0.842E+01 0.241E-04 0.553E+01   0.146E-01 0.736E-05 0.384E-01
   -.499E+02 0.537E-02 0.127E+03   0.581E+02 -.529E-02 -.123E+03   -.842E+01 -.605E-03 -.431E+01   0.574E-02 -.298E-04 0.317E-01
   0.120E+03 -.424E-03 -.577E+03   -.125E+03 0.336E-04 0.585E+03   0.559E+01 0.532E-03 -.917E+01   0.121E-02 -.698E-05 0.281E-01
   -.124E+03 -.171E-04 -.707E+03   0.129E+03 -.947E-06 0.699E+03   -.569E+01 0.253E-04 0.769E+01   -.845E-04 0.299E-05 0.291E-01
   -.525E+02 -.471E+01 0.199E+04   0.103E+03 0.135E+02 -.200E+04   -.510E+02 -.879E+01 0.101E+02   0.281E-01 0.112E-01 0.226E-01
   0.464E+02 -.383E-01 0.324E+03   -.457E+02 0.361E-01 -.323E+03   -.749E+00 0.506E-03 0.672E+00   0.124E-02 0.809E-04 0.391E-01
   0.148E+01 0.290E-04 -.184E+04   -.196E+01 -.414E-08 0.184E+04   0.615E+00 0.172E-04 0.569E+00   0.392E-02 -.905E-05 0.656E-01
   -.290E+02 0.107E+00 0.133E+04   0.287E+02 -.108E+00 -.133E+04   0.205E+00 0.662E-03 -.439E+00   0.780E-01 -.586E-02 -.494E-01
   0.597E+02 0.739E-01 0.183E+04   -.598E+02 -.677E-01 -.182E+04   0.137E+00 -.640E-02 -.401E+01   0.667E-03 0.519E-04 -.850E-01
   -.178E+02 0.116E-04 -.130E+04   0.178E+02 0.498E-08 0.130E+04   0.270E+00 -.107E-04 0.723E+00   -.881E-03 -.524E-05 0.280E-01
   0.413E+01 0.503E-03 -.194E+03   -.387E+01 -.454E-03 0.195E+03   -.264E+00 0.158E-05 -.772E+00   -.555E-04 0.891E-07 0.311E-01
   -.105E+03 0.421E+00 0.192E+04   0.105E+03 -.379E+00 -.192E+04   -.433E+00 -.403E-01 0.124E+01   0.357E-01 -.265E-02 -.860E-01
   0.372E+02 0.369E-04 -.122E+04   -.369E+02 0.534E-06 0.122E+04   -.690E+00 -.243E-04 0.237E+00   0.188E-02 -.123E-04 0.375E-01
   -.308E+02 0.380E-04 -.269E+03   0.305E+02 -.729E-04 0.270E+03   0.649E+00 -.203E-04 -.376E+00   -.109E-02 0.752E-05 0.364E-01
   -.221E+02 -.117E+00 0.268E+03   0.217E+02 0.115E+00 -.268E+03   0.386E+00 0.743E-02 0.886E+00   0.323E-02 -.137E-03 0.289E-01
   -.195E+01 0.264E-04 -.181E+04   0.200E+01 0.628E-08 0.181E+04   -.324E+00 -.198E-04 -.136E+00   0.958E-02 -.122E-04 0.134E-01
   0.507E+02 0.191E+00 0.154E+04   -.498E+02 -.183E+00 -.154E+04   -.879E+00 -.246E-02 -.349E+00   -.260E-01 -.282E-02 0.437E-02
   0.885E+02 0.119E+02 0.344E+03   -.951E+02 -.132E+02 -.347E+03   0.671E+01 0.134E+01 0.262E+01   0.438E-02 0.477E-04 -.775E-03
 -----------------------------------------------------------------------------------------------
   0.508E+02 0.742E+01 0.387E+02   -.483E-12 -.105E-12 0.227E-12   -.508E+02 -.743E+01 -.392E+02   0.400E-01 0.368E-02 0.569E+00
 
 
 POSITION                                       TOTAL-FORCE (eV/Angst)
 -----------------------------------------------------------------------------------
      8.21444      0.00000     13.70923        -0.992113      0.000205     -0.785384
      2.09355      0.00000     16.90677         1.155310      0.000012      0.490170
      2.07374      0.00456      6.72571         0.013783      0.001701      0.029257
      8.51750     -0.00142      7.34346         0.012041      0.004161     -0.016148
      8.70923      0.00000     17.40155        -0.840708      0.000059      0.752619
      1.59877      0.00000     13.21444         0.735393      0.001541     -0.990254
      2.95698      1.43104      8.62709        -0.072872     -0.001689      0.013352
      3.06045      1.42700     18.86323        -0.875134      0.000010     -0.578076
      7.24755      1.42700     11.75277         0.977910     -0.000034      0.575461
      3.55523      1.42700     12.24755        -0.792160      0.000033      0.777593
      6.75277      1.42700     18.36845         0.683041      0.000039     -0.879096
      6.79996      1.42552      8.70578         0.013073      0.001669      0.009337
      5.57869      0.00000     13.60615         0.196363      0.000008      0.139467
      4.72931      0.00000     17.00985        -0.305264      0.000026     -0.179609
      4.62124      0.00062      6.80281         0.033757      0.002826     -0.015480
      8.80275     -0.00105      9.81773         0.007247      0.003675     -0.011857
      1.70185      0.00000     20.88669         0.000365      0.000032     -1.249191
      8.60615      0.00000     20.03731         0.214501      0.000011     -1.270169
      1.63846      0.00072     10.60407         0.045306     -0.000886      0.014079
      0.41835      1.42979      8.46288         0.035217     -0.001521      0.032094
      0.42469      1.42700     18.76015         0.283934      0.000016      0.264518
      9.88331      1.42700     11.85585        -0.236725     -0.000524      0.098606
      3.45215      1.42700     14.88331         0.161603      0.000165     -0.490611
      6.85585      1.42700     15.73269        -0.180127      0.000041      0.094627
      3.40260      1.44217      4.79679        -0.167849     -0.028369     -0.020699
      8.60409      0.00000     11.72391        -0.062311     -0.001631      0.980895
      1.70391      0.00000     18.89209         0.131972      0.000068      0.524072
      1.67715      0.00405      8.66532        -0.044555     -0.006443     -0.064064
      6.40594     -0.00138      7.58945         0.007967     -0.000089      0.059616
      6.72391      0.00000     17.01191         0.336658      0.000026      0.338082
      3.58409      0.00000     13.60409        -0.010558      0.000082     -0.062507
      3.35995      1.43013      6.67060        -0.100075     -0.000973     -0.059927
      3.45009      1.42700     16.87791        -0.432747      0.000031      0.173946
      6.85791      1.42700     13.73809         0.308774     -0.000017      0.131688
      1.56991      1.42700     11.85791        -0.099845      0.005599      0.988757
      8.73809      1.42700     18.75809        -0.263978      0.000025      0.136821
      8.80999      1.42598      8.58102        -0.035520      0.002408      0.009015
      2.47907      1.26190      4.46368         0.158327      0.017707      0.038998
 -----------------------------------------------------------------------------------
    total drift:                                0.012582     -0.001166      0.013383


--------------------------------------------------------------------------------------------------------



  FREE ENERGIE OF THE ION-ELECTRON SYSTEM (eV)
  ---------------------------------------------------
  free  energy   TOTEN  =      -258.51567092 eV

  energy  without entropy=     -258.48009312  energy(sigma->0) =     -258.50381165
 
 d Force = 0.2281225E-03[ 0.167E-03, 0.289E-03]  d Energy = 0.8853494E-03-0.657E-03
 d Force = 0.1706415E+02[ 0.171E+02, 0.171E+02]  d Ewald  = 0.1706416E+02-0.742E-06


--------------------------------------------------------------------------------------------------------


    POTLOK:  cpu time    0.09: real time    0.09


--------------------------------------------------------------------------------------------------------




--------------------------------------------------------------------------------------------------------


  
 reached required accuracy - stopping structural energy minimisation
     LOOP+:  cpu time   19.29: real time   20.24
    4ORBIT:  cpu time    0.00: real time    0.00

 total amount of memory used by VASP on root node    61186. kBytes
========================================================================

   base      :      30000. kBytes
   nonl-proj :      10692. kBytes
   fftplans  :       3122. kBytes
   grid      :       8166. kBytes
   one-center:        590. kBytes
   wavefun   :       8616. kBytes
 
  
  
 General timing and accounting informations for this job:
 ========================================================
  
                  Total CPU time used (sec):     1605.687
                            User time (sec):     1596.071
                          System time (sec):        9.616
                         Elapsed time (sec):     1676.661
  
                   Maximum memory used (kb):      151972.
                   Average memory used (kb):           0.
  
                          Minor page faults:        24536
                          Major page faults:            0
                 Voluntary context switches:        21376
