 vasp.5.3.3 18Dez12 (build May 12 2016 12:04:25) complex                        
  
 executed on             LinuxIFC date 2019.05.07  18:01:39
 running on   16 total cores
 distrk:  each k-point on   16 cores,    1 groups
 distr:  one band on NCORES_PER_BAND=   2 cores,    8 groups


--------------------------------------------------------------------------------------------------------


 INCAR:
 POTCAR:   PAW_PBE O_s 07Sep2000                  
 POTCAR:   PAW_PBE Mn 06Sep2000                   
 POTCAR:   PAW_PBE H 15Jun2001                    
 POTCAR:   PAW_PBE O_s 07Sep2000                  
  local pseudopotential read in
  atomic valenz-charges read in
  non local Contribution for L=           0  read in
    real space projection operators read in
  non local Contribution for L=           0  read in
    real space projection operators read in
  non local Contribution for L=           1  read in
    real space projection operators read in
  non local Contribution for L=           1  read in
    real space projection operators read in
    PAW grid and wavefunctions read in
 
   number of l-projection  operators is LMAX  =           4
   number of lm-projection operators is LMMAX =           8
 
 POTCAR:   PAW_PBE Mn 06Sep2000                   
  local pseudopotential read in
  partial core-charges read in
  atomic valenz-charges read in
  non local Contribution for L=           2  read in
    real space projection operators read in
  non local Contribution for L=           2  read in
    real space projection operators read in
  non local Contribution for L=           0  read in
    real space projection operators read in
  non local Contribution for L=           0  read in
    real space projection operators read in
  non local Contribution for L=           1  read in
    real space projection operators read in
  non local Contribution for L=           1  read in
    real space projection operators read in
    PAW grid and wavefunctions read in
 
   number of l-projection  operators is LMAX  =           6
   number of lm-projection operators is LMMAX =          18
 
 POTCAR:   PAW_PBE H 15Jun2001                    
  local pseudopotential read in
  atomic valenz-charges read in
  non local Contribution for L=           0  read in
    real space projection operators read in
  non local Contribution for L=           0  read in
    real space projection operators read in
  non local Contribution for L=           1  read in
    real space projection operators read in
    PAW grid and wavefunctions read in
 
   number of l-projection  operators is LMAX  =           3
   number of lm-projection operators is LMMAX =           5
 

 ----------------------------------------------------------------------------- 
|                                                                             |
|  ADVICE TO THIS USER RUNNING 'VASP/VAMP'   (HEAR YOUR MASTER'S VOICE ...):  |
|                                                                             |
|      You have a (more or less) 'large supercell' and for larger cells       |
|      it might be more efficient to use real space projection operators      |
|      So try LREAL= Auto  in the INCAR   file.                               |
|      Mind: If you want to do a very accurate calculations keep the          |
|      reciprocal projection scheme          (i.e. LREAL=.FALSE.)             |
|                                                                             |
 ----------------------------------------------------------------------------- 

 PAW_PBE O_s 07Sep2000                  :
 energy of atom  1       EATOM= -432.2909
 kinetic energy error for atom=    0.0182 (will be added to EATOM!!)
 PAW_PBE Mn 06Sep2000                   :
 energy of atom  2       EATOM= -416.8732
 kinetic energy error for atom=    0.0155 (will be added to EATOM!!)
 PAW_PBE H 15Jun2001                    :
 energy of atom  3       EATOM=  -12.4884
 kinetic energy error for atom=    0.0156 (will be added to EATOM!!)
 
 
 POSCAR: Mn12 O26 H  (P1) ~ CONTCAR_1 (VASP)     
  positions in direct lattice
  velocities in cartesian coordinates
  No initial velocities read in
 exchange correlation table for  LEXCH =        8
   RHO(1)=    0.500       N(1)  =     2000
   RHO(2)=  100.500       N(2)  =     4000
 


--------------------------------------------------------------------------------------------------------


 ion  position               nearest neighbor table
   1  0.797  0.000  0.448-  35 1.97  35 1.97  27 2.02
   2  0.203  0.000  0.552-  34 1.97  34 1.97  28 2.02
   3  0.206  0.000  0.220-  33 1.92  33 1.92  29 1.98
   4  0.829  0.000  0.239-  38 1.92  38 1.92  30 2.06
   5  0.845  0.000  0.568-  37 1.97  37 1.97  31 2.02
   6  0.155  0.000  0.432-  36 1.97  36 1.97  32 2.02
   7  0.288  0.500  0.282-  29 1.90  29 1.90  33 2.08
   8  0.297  0.500  0.616-  28 1.97  28 1.97  34 2.02
   9  0.703  0.500  0.384-  27 1.97  27 1.97  35 2.02
  10  0.345  0.500  0.400-  32 1.97  32 1.97  36 2.02
  11  0.655  0.500  0.600-  31 1.97  31 1.97  37 2.02
  12  0.661  0.500  0.281-  30 1.84  30 1.84  38 2.04
  13  0.541  0.000  0.444-  35 1.92  35 1.92  32 1.99
  14  0.459  0.000  0.556-  34 1.92  34 1.92  31 1.99
  15  0.455  0.000  0.222-  30 1.93  33 1.93  33 1.93
  16  0.853  0.000  0.320-  38 1.89  38 1.89  27 1.94
  17  0.165  0.000  0.682-  28 1.99
  18  0.835  0.000  0.654-  37 1.92  37 1.92
  19  0.160  0.000  0.347-  36 1.90  36 1.90  29 1.95
  20  0.042  0.500  0.276-  38 1.89  29 1.93  29 1.93
  21  0.041  0.500  0.613-  28 1.92  28 1.92  37 1.99
  22  0.959  0.500  0.387-  27 1.92  27 1.92  36 1.99
  23  0.335  0.500  0.486-  32 1.92  32 1.92  34 1.99
  24  0.665  0.500  0.514-  31 1.92  31 1.92  35 1.99
  25  0.334  0.500  0.159-  26 1.31  33 1.75
  26  0.433  0.650  0.136-  39 1.28  25 1.31
  27  0.835  0.000  0.383-  22 1.92  22 1.92  16 1.94   9 1.97   9 1.97   1 2.02  35 3.02  35 3.02

  28  0.165  0.000  0.617-  21 1.92  21 1.92   8 1.97   8 1.97  17 1.99   2 2.02  34 3.02  34 3.02

  29  0.167  0.000  0.283-   7 1.90   7 1.90  20 1.93  20 1.93  19 1.95   3 1.98  33 3.01  33 3.01

  30  0.630  0.000  0.244-  12 1.84  12 1.84  15 1.93   4 2.06  38 2.97  38 2.97
  31  0.652  0.000  0.556-  24 1.92  24 1.92  11 1.97  11 1.97  14 1.99   5 2.02  37 3.02  37 3.02

  32  0.348  0.000  0.444-  23 1.92  23 1.92  10 1.97  10 1.97  13 1.99   6 2.02  36 3.02  36 3.02

  33  0.330  0.500  0.216-  25 1.75   3 1.92   3 1.92  15 1.93  15 1.93   7 2.08  29 3.01  29 3.01

  34  0.335  0.500  0.551-  14 1.92  14 1.92   2 1.97   2 1.97  23 1.99   8 2.02  28 3.02  28 3.02

  35  0.665  0.500  0.449-  13 1.92  13 1.92   1 1.97   1 1.97  24 1.99   9 2.02  27 3.02  27 3.02

  36  0.152  0.500  0.387-  19 1.90  19 1.90   6 1.97   6 1.97  22 1.99  10 2.02  32 3.02  32 3.02

  37  0.848  0.500  0.613-  18 1.92  18 1.92   5 1.97   5 1.97  21 1.99  11 2.02  31 3.02  31 3.02

  38  0.859  0.500  0.280-  16 1.89  16 1.89  20 1.89   4 1.92   4 1.92  12 2.04  30 2.97  30 2.97

  39  0.533  0.757  0.159-  26 1.28
 
  LATTYP: Found a simple orthorhombic cell.
 ALAT       =     2.8540000900
 B/A-ratio  =     3.6117726997
 C/A-ratio  =    10.7273995286
  
  Lattice vectors:
  
 A1 = (   0.0000000000,  -2.8540000900,   0.0000000000)
 A2 = ( -10.3079996100,   0.0000000000,   0.0000000000)
 A3 = (   0.0000000000,   0.0000000000, -30.6159992200)


Analysis of symmetry for initial positions (statically):
=====================================================================
 Subroutine PRICEL returns:
 Original cell was already a primitive cell.
 

 Routine SETGRP: Setting up the symmetry group for a 
 simple orthorhombic supercell.


 Subroutine GETGRP returns: Found  1 space group operations
 (whereof  1 operations were pure point group operations)
 out of a pool of  8 trial point group operations.


The static configuration has the point symmetry C_1 .


Analysis of symmetry for dynamics (positions and initial velocities):
=====================================================================
 Subroutine PRICEL returns:
 Original cell was already a primitive cell.
 

 Routine SETGRP: Setting up the symmetry group for a 
 simple orthorhombic supercell.


 Subroutine GETGRP returns: Found  1 space group operations
 (whereof  1 operations were pure point group operations)
 out of a pool of  8 trial point group operations.


The dynamic configuration has the point symmetry C_1 .


Analysis of constrained symmetry for selective dynamics:
=====================================================================
 Subroutine PRICEL returns:
 Original cell was already a primitive cell.
 

 Routine SETGRP: Setting up the symmetry group for a 
 simple orthorhombic supercell.


 Subroutine GETGRP returns: Found  1 space group operations
 (whereof  1 operations were pure point group operations)
 out of a pool of  8 trial point group operations.


The constrained configuration has the point symmetry C_1 .


Analysis of magnetic symmetry:
=====================================================================

 Subroutine MAGSYM returns: Found  1 space group operations
 (whereof  1 operations were pure point group operations)
 out of a pool of  1 trial space group operations
 (whereof  1 operations were pure point group operations)
 and found also     1 'primitive' translations


The magnetic configuration has the point symmetry C_1 .


 irot  :   1
 --------------------------------------------------------------------
 isymop:   1   0   0
           0   1   0
           0   0   1

 gtrans:     0.0000000     0.0000000     0.0000000

 ptrans:     0.0000000     0.0000000     0.0000000
 rotmap:
 (   1->   1)  (   2->   2)  (   3->   3)  (   4->   4)  (   5->   5) 
 (   6->   6)  (   7->   7)  (   8->   8)  (   9->   9)  (  10->  10) 
 (  11->  11)  (  12->  12)  (  13->  13)  (  14->  14)  (  15->  15) 
 (  16->  16)  (  17->  17)  (  18->  18)  (  19->  19)  (  20->  20) 
 (  21->  21)  (  22->  22)  (  23->  23)  (  24->  24)  (  25->  25) 
 (  26->  26)  (  27->  27)  (  28->  28)  (  29->  29)  (  30->  30) 
 (  31->  31)  (  32->  32)  (  33->  33)  (  34->  34)  (  35->  35) 
 (  36->  36)  (  37->  37)  (  38->  38)  (  39->  39) 
 
 
 KPOINTS: Automatic mesh                          

Automatic generation of k-mesh.
Space group operators:
 irot       det(A)        alpha          n_x          n_y          n_z        tau_x        tau_y        tau_z
    1     1.000000     0.000000     1.000000     0.000000     0.000000     0.000000     0.000000     0.000000
 
 Subroutine IBZKPT returns following result:
 ===========================================
 
 Found      2 irreducible k-points:
 
 Following reciprocal coordinates:
            Coordinates               Weight
  0.000000  0.000000  0.000000      1.000000
  0.000000  0.500000  0.000000      1.000000
 
 Following cartesian coordinates:
            Coordinates               Weight
  0.000000  0.000000  0.000000      1.000000
  0.000000  0.175193  0.000000      1.000000
 


--------------------------------------------------------------------------------------------------------




 Dimension of arrays:
   k-points           NKPTS =      2   k-points in BZ     NKDIM =      2   number of bands    NBANDS=    144
   number of dos      NEDOS =    301   number of ions     NIONS =     39
   non local maximal  LDIM  =      6   non local SUM 2l+1 LMDIM =     18
   total plane-waves  NPLWV =  96768
   max r-space proj   IRMAX =      1   max aug-charges    IRDMAX=   4149
   dimension x,y,z NGX =    48 NGY =   14 NGZ =  144
   dimension x,y,z NGXF=    96 NGYF=   28 NGZF=  288
   support grid    NGXF=    96 NGYF=   28 NGZF=  288
   ions per type =              26  12   1
 NGX,Y,Z   is equivalent  to a cutoff of   7.74,  8.16,  7.82 a.u.
 NGXF,Y,Z  is equivalent  to a cutoff of  15.48, 16.31, 15.64 a.u.


 I would recommend the setting:
   dimension x,y,z NGX =    48 NGY =   13 NGZ =  144
 SYSTEM =  Mn12 O26 H  (P1) ~ CONTCAR_1 (VASP)     
 POSCAR =  Mn12 O26 H  (P1) ~ CONTCAR_1 (VASP)     

 Startparameter for this run:
   NWRITE =      1    write-flag & timer
   PREC   = normal    normal or accurate (medium, high low for compatibility)
   ISTART =      0    job   : 0-new  1-cont  2-samecut
   ICHARG =      2    charge: 1-file 2-atom 10-const
   ISPIN  =      2    spin polarized calculation?
   LNONCOLLINEAR =      F non collinear calculations
   LSORBIT =      F    spin-orbit coupling
   INIWAV =      1    electr: 0-lowe 1-rand  2-diag
   LASPH  =      F    aspherical Exc in radial PAW
   METAGGA=      F    non-selfconsistent MetaGGA calc.

 Electronic Relaxation 1
   ENCUT  =  367.7 eV  27.02 Ry    5.20 a.u.  16.12  4.46 47.87*2*pi/ulx,y,z
   ENINI  =  367.7     initial cutoff
   ENAUG  =  500.7 eV  augmentation charge cutoff
   NELM   =     60;   NELMIN=  2; NELMDL= -5     # of ELM steps 
   EDIFF  = 0.1E-03   stopping-criterion for ELM
   LREAL  =      F    real-space projection
   NLSPLINE    = F    spline interpolate recip. space projectors
   LCOMPAT=      F    compatible to vasp.4.4
   GGA_COMPAT  = T    GGA compatible to vasp.4.4-vasp.4.6
   LMAXPAW     = -100 max onsite density
   LMAXMIX     =    4 max onsite mixed and CHGCAR
   VOSKOWN=      1    Vosko Wilk Nusair interpolation
   ROPT   =    0.00000   0.00000   0.00000
 Ionic relaxation
   EDIFFG = 0.1E-02   stopping-criterion for IOM
   NSW    =    100    number of steps for IOM
   NBLOCK =      1;   KBLOCK =    100    inner block; outer block 
   IBRION =      2    ionic relax: 0-MD 1-quasi-New 2-CG
   NFREE  =      1    steps in history (QN), initial steepest desc. (CG)
   ISIF   =      2    stress and relaxation
   IWAVPR =     11    prediction:  0-non 1-charg 2-wave 3-comb
   ISYM   =      2    0-nonsym 1-usesym 2-fastsym
   LCORR  =      T    Harris-Foulkes like correction to forces

   POTIM  = 0.5000    time-step for ionic-motion
   TEIN   =    0.0    initial temperature
   TEBEG  =    0.0;   TEEND  =   0.0 temperature during run
   SMASS  =  -3.00    Nose mass-parameter (am)
   estimated Nose-frequenzy (Omega)   =  0.10E-29 period in steps =****** mass=  -0.243E-26a.u.
   SCALEE = 1.0000    scale energy and forces
   NPACO  =    256;   APACO  = 16.0  distance and # of slots for P.C.
   PSTRESS=    0.0 pullay stress

  Mass of Ions in am
   POMASS =  16.00 54.94  1.00
  Ionic Valenz
   ZVAL   =   6.00  7.00  1.00
  Atomic Wigner-Seitz radii
   RWIGS  =  -1.00 -1.00 -1.00
  virtual crystal weights 
   VCA    =   1.00  1.00  1.00
   NELECT =     241.0000    total number of electrons
   NUPDOWN=      -1.0000    fix difference up-down

 DOS related values:
   EMIN   =  10.00;   EMAX   =-10.00  energy-range for DOS
   EFERMI =   0.00
   ISMEAR =     1;   SIGMA  =   0.20  broadening in eV -4-tet -1-fermi 0-gaus

 Electronic relaxation 2 (details)
   IALGO  =     38    algorithm
   LDIAG  =      T    sub-space diagonalisation (order eigenvalues)
   LSUBROT=      T    optimize rotation matrix (better conditioning)
   TURBO    =      0    0=normal 1=particle mesh
   IRESTART =      0    0=no restart 2=restart with 2 vectors
   NREBOOT  =      0    no. of reboots
   NMIN     =      0    reboot dimension
   EREF     =   0.00    reference energy to select bands
   IMIX   =      4    mixing-type and parameters
     AMIX     =   0.40;   BMIX     =  1.00
     AMIX_MAG =   1.60;   BMIX_MAG =  1.00
     AMIN     =   0.10
     WC   =   100.;   INIMIX=   1;  MIXPRE=   1;  MAXMIX= -45

 Intra band minimization:
   WEIMIN = 0.0010     energy-eigenvalue tresh-hold
   EBREAK =  0.17E-06  absolut break condition
   DEPER  =   0.30     relativ break condition  

   TIME   =   0.40     timestep for ELM

  volume/ion in A,a.u.               =      23.09       155.85
  Fermi-wavevector in a.u.,A,eV,Ry     =   1.054925  1.993519 15.141471  1.112867
  Thomas-Fermi vector in A             =   2.190104
 
 Write flags
   LWAVE  =      F    write WAVECAR
   LCHARG =      F    write CHGCAR
   LVTOT  =      F    write LOCPOT, total local potential
   LVHAR  =      F    write LOCPOT, Hartree potential only
   LELF   =      F    write electronic localiz. function (ELF)
   LORBIT =      0    0 simple, 1 ext, 2 COOP (PROOUT)


 Dipole corrections
   LMONO  =      F    monopole corrections only (constant potential shift)
   LDIPOL =      F    correct potential (dipole corrections)
   IDIPOL =      0    1-x, 2-y, 3-z, 4-all directions 
   EPSILON=  1.0000000 bulk dielectric constant

 LDA+U is selected, type is set to LDAUTYPE =  2
   angular momentum for each species LDAUL =    -1    2   -1
   U (eV)           for each species LDAUU =   0.0  3.9  0.0
   J (eV)           for each species LDAUJ =   0.0  0.0  0.0
 Exchange correlation treatment:
   GGA     =    --    GGA type
   LEXCH   =     8    internal setting for exchange type
   VOSKOWN=      1    Vosko Wilk Nusair interpolation
   LHFCALC =     F    Hartree Fock is set to
   LHFONE  =     F    Hartree Fock one center treatment
   AEXX    =    0.0000 exact exchange contribution

 Linear response parameters
   LEPSILON=     F    determine dielectric tensor
   LRPA    =     F    only Hartree local field effects (RPA)
   LNABLA  =     F    use nabla operator in PAW spheres
   LVEL    =     F    velocity operator in full k-point grid
   LINTERFAST=   F  fast interpolation
   KINTER  =     0    interpolate to denser k-point grid
   CSHIFT  =0.1000    complex shift for real part using Kramers Kronig
   OMEGAMAX=  -1.0    maximum frequency
   DEG_THRESHOLD= 0.2000000E-02 threshold for treating states as degnerate
   RTIME   =    0.100 relaxation time in fs

 Orbital magnetization related:
   ORBITALMAG=     F  switch on orbital magnetization
   LCHIMAG   =     F  perturbation theory with respect to B field
   DQ        =  0.001000  dq finite difference perturbation B field



--------------------------------------------------------------------------------------------------------


 conjugate gradient relaxation of ions
   using selective dynamics as specified on POSCAR
 charge density and potential will be updated during run
 spin polarized calculation
 Variant of blocked Davidson
 Davidson routine will perform the subspace rotation
 perform sub-space diagonalisation
    after iterative eigenvector-optimisation
 modified Broyden-mixing scheme, WC =      100.0
 initial mixing is a Kerker type mixing with AMIX =  0.4000 and BMIX =      1.0000
 Hartree-type preconditioning will be used
 using additional bands           23
 reciprocal scheme for non local part
 use partial core corrections
 calculate Harris-corrections to forces 
   (improved forces if not selfconsistent)
 use gradient corrections 
 use of overlap-Matrix (Vanderbilt PP)
 Methfessel and Paxton  Order N= 1 SIGMA  =   0.20


--------------------------------------------------------------------------------------------------------


  energy-cutoff  :      367.69
  volume of cell :      900.69
      direct lattice vectors                 reciprocal lattice vectors
    10.307999610  0.000000000  0.000000000     0.097012033  0.000000000  0.000000000
     0.000000000  2.854000090  0.000000000     0.000000000  0.350385413  0.000000000
     0.000000000  0.000000000 30.615999220     0.000000000  0.000000000  0.032662661

  length of vectors
    10.307999610  2.854000090 30.615999220     0.097012033  0.350385413  0.032662661


 
 k-points in units of 2pi/SCALE and weight: Automatic mesh                          
   0.00000000  0.00000000  0.00000000       0.500
   0.00000000  0.17519271  0.00000000       0.500
 
 k-points in reciprocal lattice and weights: Automatic mesh                          
   0.00000000  0.00000000  0.00000000       0.500
   0.00000000  0.50000000  0.00000000       0.500
 
 position of ions in fractional coordinates (direct lattice) 
   0.79689997  0.00000000  0.44777989
   0.20310000  0.00000000  0.55222011
   0.20626482  0.00000000  0.21955378
   0.82917690  0.00000000  0.23880629
   0.84490001  0.00000000  0.56838107
   0.15510000  0.00000000  0.43161893
   0.28789958  0.50000000  0.28214535
   0.29690000  0.50000000  0.61612326
   0.70310003  0.50000000  0.38387677
   0.34490001  0.50000000  0.40003771
   0.65509999  0.50000000  0.59996229
   0.66101235  0.50000000  0.28087744
   0.54119998  0.00000000  0.44441304
   0.45879999  0.00000000  0.55558699
   0.45460337  0.00000000  0.22190724
   0.85284221  0.00000000  0.31991559
   0.16509999  0.00000000  0.68221486
   0.83490002  0.00000000  0.65447187
   0.15997644  0.00000000  0.34655949
   0.04209276  0.50000000  0.27630377
   0.04120000  0.50000000  0.61275637
   0.95880002  0.50000000  0.38724363
   0.33489999  0.50000000  0.48612851
   0.66509998  0.50000000  0.51387149
   0.33422410  0.50000000  0.15857914
   0.43342239  0.64999998  0.13585790
   0.83469999  0.00000000  0.38293403
   0.16530000  0.00000000  0.61706597
   0.16659236  0.00000000  0.28278360
   0.62954938  0.00000000  0.24432591
   0.65230000  0.00000000  0.55565429
   0.34770000  0.00000000  0.44434568
   0.32976869  0.50000000  0.21565011
   0.33469999  0.50000000  0.55127740
   0.66530001  0.50000000  0.44872263
   0.15230000  0.50000000  0.38731095
   0.84770000  0.50000000  0.61268902
   0.85914975  0.50000000  0.27966499
   0.53342199  0.75650001  0.15858000
 
 position of ions in cartesian coordinates  (Angst):
   8.21444458  0.00000000 13.70922876
   2.09355472  0.00000000 16.90677046
   2.12617768  0.00000000  6.72185836
   8.54715516  0.00000000  7.31129319
   8.70922897  0.00000000 17.40155440
   1.59877074  0.00000000 13.21444482
   2.96766876  1.42700004  8.63816182
   3.06044508  1.42700004 18.86322925
   7.24755484  1.42700004 11.75277089
   3.55522917  1.42700004 12.24755422
   6.75277044  1.42700004 18.36844500
   6.81371505  1.42700004  8.59934348
   5.57868918  0.00000000 13.60614929
   4.72931012  0.00000000 17.00985085
   4.68605136  0.00000000  6.79391189
   8.79109717  0.00000000  9.79453545
   1.70185063  0.00000000 20.88668962
   8.60614908  0.00000000 20.03731026
   1.64903708  0.00000000 10.61026508
   0.43389215  1.42700004  8.45931601
   0.42468958  1.42700004 18.76014855
   9.88331023  1.42700004 11.85585067
   3.45214897  1.42700004 14.88331008
   6.85585033  1.42700004 15.73268914
   3.44518189  1.42700004  4.85505883
   4.46771783  1.85510000  4.15942536
   8.60408717  0.00000000 11.72390796
   1.70391234  0.00000000 18.89209126
   1.71723398  0.00000000  8.65770248
   6.48939476  0.00000000  7.48028187
   6.72390815  0.00000000 17.01191131
   3.58409146  0.00000000 13.60408699
   3.39925553  1.42700004  6.60234360
   3.45008737  1.42700004 16.87790845
   6.85791224  1.42700004 13.73809169
   1.56990834  1.42700004 11.85791174
   8.73809127  1.42700004 18.75808656
   8.85611529  1.42700004  8.56222312
   5.49851366  2.15905110  4.85508516
 


--------------------------------------------------------------------------------------------------------


 k-point  1 :   0.0000 0.0000 0.0000  plane waves:   14531
 k-point  2 :   0.0000 0.5000 0.0000  plane waves:   14284

 maximum and minimum number of plane-waves per node :      7269     7142

 maximum number of plane-waves:     14531
 maximum index in each direction: 
   IXMAX=   16   IYMAX=    4   IZMAX=   47
   IXMIN=  -16   IYMIN=   -4   IZMIN=  -47

 WARNING: aliasing errors must be expected set NGX to  66 to avoid them
 WARNING: aliasing errors must be expected set NGY to  18 to avoid them
 WARNING: aliasing errors must be expected set NGZ to 190 to avoid them
 aliasing errors are usually negligible using standard VASP settings
 and one can safely disregard these warnings

 parallel 3D FFT for wavefunctions:
    minimum data exchange during FFTs selected (reduces bandwidth)
 parallel 3D FFT for charge:
    minimum data exchange during FFTs selected (reduces bandwidth)


 total amount of memory used by VASP on root node    61344. kBytes
========================================================================

   base      :      30000. kBytes
   nonl-proj :      10808. kBytes
   fftplans  :       3122. kBytes
   grid      :       8166. kBytes
   one-center:        622. kBytes
   wavefun   :       8626. kBytes
 
 Broyden mixing: mesh for mixing (old mesh)
   NGX = 33   NGY =  9   NGZ = 95
  (NGX  = 96   NGY  = 28   NGZ  =288)
  gives a total of  28215 points

 initial charge density was supplied:
 charge density of overlapping atoms calculated
 number of electron     241.0000000 magnetization      -0.0000000
 keeping initial charge density in first step


--------------------------------------------------------------------------------------------------------


 Maximum index for augmentation-charges          302 (set IRDMAX)


--------------------------------------------------------------------------------------------------------


 First call to EWALD:  gamma=   0.184
 Maximum number of real-space cells 3x 8x 1
 Maximum number of reciprocal cells 3x 1x 8

 FEWALD executed in parallel
    FEWALD:  cpu time    0.00: real time    0.00


----------------------------------------- Iteration    1(   1)  ---------------------------------------


    POTLOK:  cpu time    0.08: real time    0.08
    SETDIJ:  cpu time    0.01: real time    0.01
     EDDAV:  cpu time    2.63: real time    2.64
       DOS:  cpu time    0.00: real time    0.00
    --------------------------------------------
      LOOP:  cpu time    2.72: real time    2.79

 eigenvalue-minimisations  :  1176
 total energy-change (2. order) : 0.2904214E+04  (-0.8409747E+04)
 number of electron     241.0000000 magnetization      -0.0000000
 augmentation part      241.0000000 magnetization      -0.0000000

 Free energy of the ion-electron system (eV)
  ---------------------------------------------------
  alpha Z        PSCENC =       380.03038077
  Ewald energy   TEWEN  =     94541.20530499
  -1/2 Hartree   DENC   =   -109807.91358030
  -exchange  EXHF       =         0.00000000
  -V(xc)+E(xc)   XCENC  =       584.26657524
  PAW double counting   =     11490.07202038   -11334.42726148
  entropy T*S    EENTRO =         0.01281415
  eigenvalues    EBANDS =       797.11112295
  atomic energy  EATOM  =     16253.85707884
  ---------------------------------------------------
  free energy    TOTEN  =      2904.21445555 eV

  energy without entropy =     2904.20164140  energy(sigma->0) =     2904.21018416


--------------------------------------------------------------------------------------------------------




----------------------------------------- Iteration    1(   2)  ---------------------------------------


     EDDAV:  cpu time    2.61: real time    2.61
       DOS:  cpu time    0.00: real time    0.00
    --------------------------------------------
      LOOP:  cpu time    2.61: real time    2.67

 eigenvalue-minimisations  :  1168
 total energy-change (2. order) :-0.2535935E+04  (-0.2459241E+04)
 number of electron     241.0000000 magnetization      -0.0000000
 augmentation part      241.0000000 magnetization      -0.0000000

 Free energy of the ion-electron system (eV)
  ---------------------------------------------------
  alpha Z        PSCENC =       380.03038077
  Ewald energy   TEWEN  =     94541.20530499
  -1/2 Hartree   DENC   =   -109807.91358030
  -exchange  EXHF       =         0.00000000
  -V(xc)+E(xc)   XCENC  =       584.26657524
  PAW double counting   =     11490.07202038   -11334.42726148
  entropy T*S    EENTRO =         0.03204658
  eigenvalues    EBANDS =     -1738.84299700
  atomic energy  EATOM  =     16253.85707884
  ---------------------------------------------------
  free energy    TOTEN  =       368.27956803 eV

  energy without entropy =      368.24752144  energy(sigma->0) =      368.26888583


--------------------------------------------------------------------------------------------------------




----------------------------------------- Iteration    1(   3)  ---------------------------------------


     EDDAV:  cpu time    3.52: real time    3.52
       DOS:  cpu time    0.00: real time    0.00
    --------------------------------------------
      LOOP:  cpu time    3.52: real time    3.59

 eigenvalue-minimisations  :  1712
 total energy-change (2. order) :-0.6565510E+03  (-0.6328057E+03)
 number of electron     241.0000000 magnetization      -0.0000000
 augmentation part      241.0000000 magnetization      -0.0000000

 Free energy of the ion-electron system (eV)
  ---------------------------------------------------
  alpha Z        PSCENC =       380.03038077
  Ewald energy   TEWEN  =     94541.20530499
  -1/2 Hartree   DENC   =   -109807.91358030
  -exchange  EXHF       =         0.00000000
  -V(xc)+E(xc)   XCENC  =       584.26657524
  PAW double counting   =     11490.07202038   -11334.42726148
  entropy T*S    EENTRO =        -0.01539686
  eigenvalues    EBANDS =     -2395.34653703
  atomic energy  EATOM  =     16253.85707884
  ---------------------------------------------------
  free energy    TOTEN  =      -288.27141544 eV

  energy without entropy =     -288.25601859  energy(sigma->0) =     -288.26628316


--------------------------------------------------------------------------------------------------------




----------------------------------------- Iteration    1(   4)  ---------------------------------------


     EDDAV:  cpu time    3.62: real time    3.63
       DOS:  cpu time    0.00: real time    0.00
    --------------------------------------------
      LOOP:  cpu time    3.62: real time    3.70

 eigenvalue-minimisations  :  1784
 total energy-change (2. order) :-0.6412919E+02  (-0.6272395E+02)
 number of electron     241.0000000 magnetization      -0.0000000
 augmentation part      241.0000000 magnetization      -0.0000000

 Free energy of the ion-electron system (eV)
  ---------------------------------------------------
  alpha Z        PSCENC =       380.03038077
  Ewald energy   TEWEN  =     94541.20530499
  -1/2 Hartree   DENC   =   -109807.91358030
  -exchange  EXHF       =         0.00000000
  -V(xc)+E(xc)   XCENC  =       584.26657524
  PAW double counting   =     11490.07202038   -11334.42726148
  entropy T*S    EENTRO =        -0.05702626
  eigenvalues    EBANDS =     -2459.43409388
  atomic energy  EATOM  =     16253.85707884
  ---------------------------------------------------
  free energy    TOTEN  =      -352.40060169 eV

  energy without entropy =     -352.34357543  energy(sigma->0) =     -352.38159294


--------------------------------------------------------------------------------------------------------




----------------------------------------- Iteration    1(   5)  ---------------------------------------


     EDDAV:  cpu time    3.61: real time    3.61
       DOS:  cpu time    0.00: real time    0.00
    CHARGE:  cpu time    0.10: real time    0.10
    MIXING:  cpu time    0.00: real time    0.00
    --------------------------------------------
      LOOP:  cpu time    3.71: real time    3.79

 eigenvalue-minimisations  :  1776
 total energy-change (2. order) :-0.1920391E+01  (-0.1888663E+01)
 number of electron     240.9999901 magnetization       0.0335460
 augmentation part       66.6863290 magnetization      -0.2892019

 Broyden mixing:
  rms(total) = 0.67512E+01    rms(broyden)= 0.67438E+01
  rms(prec ) = 0.70783E+01
  weight for this iteration     100.00

 Free energy of the ion-electron system (eV)
  ---------------------------------------------------
  alpha Z        PSCENC =       380.03038077
  Ewald energy   TEWEN  =     94541.20530499
  -1/2 Hartree   DENC   =   -109807.91358030
  -exchange  EXHF       =         0.00000000
  -V(xc)+E(xc)   XCENC  =       584.26657524
  PAW double counting   =     11490.07202038   -11334.42726148
  entropy T*S    EENTRO =        -0.06084421
  eigenvalues    EBANDS =     -2461.35066733
  atomic energy  EATOM  =     16253.85707884
  ---------------------------------------------------
  free energy    TOTEN  =      -354.32099309 eV

  energy without entropy =     -354.26014888  energy(sigma->0) =     -354.30071169


--------------------------------------------------------------------------------------------------------




----------------------------------------- Iteration    1(   6)  ---------------------------------------


    POTLOK:  cpu time    0.07: real time    0.07
    SETDIJ:  cpu time    0.01: real time    0.01
     EDDAV:  cpu time    4.02: real time    4.03
       DOS:  cpu time    0.00: real time    0.00
    CHARGE:  cpu time    0.10: real time    0.10
    MIXING:  cpu time    0.00: real time    0.00
    --------------------------------------------
      LOOP:  cpu time    4.22: real time    4.40

 eigenvalue-minimisations  :  2024
 total energy-change (2. order) :-0.1770547E+02  (-0.1636255E+03)
 number of electron     241.0000113 magnetization       0.0285186
 augmentation part       84.3436374 magnetization       0.1524413

 Broyden mixing:
  rms(total) = 0.11157E+02    rms(broyden)= 0.11154E+02
  rms(prec ) = 0.12793E+02
  weight for this iteration     100.00

 eigenvalues of (default mixing * dielectric matrix)
  average eigenvalue GAMMA=   0.3551
  0.3551

 Free energy of the ion-electron system (eV)
  ---------------------------------------------------
  alpha Z        PSCENC =       380.03038077
  Ewald energy   TEWEN  =     94541.20530499
  -1/2 Hartree   DENC   =   -109746.62899454
  -exchange  EXHF       =         0.00000000
  -V(xc)+E(xc)   XCENC  =       612.40707617
  PAW double counting   =     12385.18153630   -12217.68758640
  entropy T*S    EENTRO =        -0.03070796
  eigenvalues    EBANDS =     -2580.36054745
  atomic energy  EATOM  =     16253.85707884
  ---------------------------------------------------
  free energy    TOTEN  =      -372.02645928 eV

  energy without entropy =     -371.99575132  energy(sigma->0) =     -372.01622329


--------------------------------------------------------------------------------------------------------




----------------------------------------- Iteration    1(   7)  ---------------------------------------


    POTLOK:  cpu time    0.07: real time    0.07
    SETDIJ:  cpu time    0.01: real time    0.01
     EDDAV:  cpu time    4.35: real time    4.35
       DOS:  cpu time    0.00: real time    0.00
    CHARGE:  cpu time    0.10: real time    0.10
    MIXING:  cpu time    0.00: real time    0.00
    --------------------------------------------
      LOOP:  cpu time    4.54: real time    4.61

 eigenvalue-minimisations  :  2216
 total energy-change (2. order) :-0.7047800E+02  (-0.2397756E+03)
 number of electron     240.9999937 magnetization       0.0378020
 augmentation part       73.6843534 magnetization      -0.6657143

 Broyden mixing:
  rms(total) = 0.10410E+02    rms(broyden)= 0.10408E+02
  rms(prec ) = 0.15905E+02
  weight for this iteration     100.00

 eigenvalues of (default mixing * dielectric matrix)
  average eigenvalue GAMMA=   0.2056
  0.3481  0.0632

 Free energy of the ion-electron system (eV)
  ---------------------------------------------------
  alpha Z        PSCENC =       380.03038077
  Ewald energy   TEWEN  =     94541.20530499
  -1/2 Hartree   DENC   =   -110126.00654600
  -exchange  EXHF       =         0.00000000
  -V(xc)+E(xc)   XCENC  =       593.37397378
  PAW double counting   =     12443.94215940   -12314.70755968
  entropy T*S    EENTRO =        -0.00104220
  eigenvalues    EBANDS =     -2214.19821162
  atomic energy  EATOM  =     16253.85707884
  ---------------------------------------------------
  free energy    TOTEN  =      -442.50446171 eV

  energy without entropy =     -442.50341951  energy(sigma->0) =     -442.50411431


--------------------------------------------------------------------------------------------------------




----------------------------------------- Iteration    1(   8)  ---------------------------------------


    POTLOK:  cpu time    0.08: real time    0.08
    SETDIJ:  cpu time    0.01: real time    0.01
     EDDAV:  cpu time    3.85: real time    3.85
       DOS:  cpu time    0.00: real time    0.00
    CHARGE:  cpu time    0.10: real time    0.10
    MIXING:  cpu time    0.00: real time    0.00
    --------------------------------------------
      LOOP:  cpu time    4.05: real time    4.15

 eigenvalue-minimisations  :  1920
 total energy-change (2. order) : 0.1847068E+03  (-0.8033124E+02)
 number of electron     240.9999953 magnetization       0.0146105
 augmentation part       67.2203587 magnetization       0.2105441

 Broyden mixing:
  rms(total) = 0.32102E+01    rms(broyden)= 0.32015E+01
  rms(prec ) = 0.35978E+01
  weight for this iteration     100.00

 eigenvalues of (default mixing * dielectric matrix)
  average eigenvalue GAMMA=   0.3208
  0.6054  0.2453  0.1116

 Free energy of the ion-electron system (eV)
  ---------------------------------------------------
  alpha Z        PSCENC =       380.03038077
  Ewald energy   TEWEN  =     94541.20530499
  -1/2 Hartree   DENC   =   -110092.42803751
  -exchange  EXHF       =         0.00000000
  -V(xc)+E(xc)   XCENC  =       590.27818156
  PAW double counting   =     12468.77598258   -12346.02891929
  entropy T*S    EENTRO =         0.01632242
  eigenvalues    EBANDS =     -2053.50394396
  atomic energy  EATOM  =     16253.85707884
  ---------------------------------------------------
  free energy    TOTEN  =      -257.79764960 eV

  energy without entropy =     -257.81397203  energy(sigma->0) =     -257.80309041


--------------------------------------------------------------------------------------------------------




----------------------------------------- Iteration    1(   9)  ---------------------------------------


    POTLOK:  cpu time    0.08: real time    0.08
    SETDIJ:  cpu time    0.01: real time    0.01
     EDDAV:  cpu time    3.84: real time    3.84
       DOS:  cpu time    0.00: real time    0.00
    CHARGE:  cpu time    0.10: real time    0.10
    MIXING:  cpu time    0.00: real time    0.00
    --------------------------------------------
      LOOP:  cpu time    4.03: real time    4.11

 eigenvalue-minimisations  :  1912
 total energy-change (2. order) :-0.8118000E+01  (-0.2020790E+02)
 number of electron     240.9999930 magnetization       0.0332565
 augmentation part       67.3602697 magnetization      -0.2873853

 Broyden mixing:
  rms(total) = 0.28510E+01    rms(broyden)= 0.28495E+01
  rms(prec ) = 0.30611E+01
  weight for this iteration     100.00

 eigenvalues of (default mixing * dielectric matrix)
  average eigenvalue GAMMA=   0.3228
  0.6111  0.2832  0.2832  0.1135

 Free energy of the ion-electron system (eV)
  ---------------------------------------------------
  alpha Z        PSCENC =       380.03038077
  Ewald energy   TEWEN  =     94541.20530499
  -1/2 Hartree   DENC   =   -109981.92767901
  -exchange  EXHF       =         0.00000000
  -V(xc)+E(xc)   XCENC  =       592.08360663
  PAW double counting   =     12575.54381474   -12452.15860194
  entropy T*S    EENTRO =        -0.00743608
  eigenvalues    EBANDS =     -2174.54211884
  atomic energy  EATOM  =     16253.85707884
  ---------------------------------------------------
  free energy    TOTEN  =      -265.91564991 eV

  energy without entropy =     -265.90821383  energy(sigma->0) =     -265.91317122


--------------------------------------------------------------------------------------------------------




----------------------------------------- Iteration    1(  10)  ---------------------------------------


    POTLOK:  cpu time    0.08: real time    0.08
    SETDIJ:  cpu time    0.01: real time    0.01
     EDDAV:  cpu time    3.77: real time    3.77
       DOS:  cpu time    0.00: real time    0.00
    CHARGE:  cpu time    0.10: real time    0.10
    MIXING:  cpu time    0.00: real time    0.00
    --------------------------------------------
      LOOP:  cpu time    3.96: real time    4.09

 eigenvalue-minimisations  :  1872
 total energy-change (2. order) : 0.1481352E+01  (-0.1969431E+01)
 number of electron     240.9999960 magnetization       0.0421844
 augmentation part       67.6896682 magnetization      -0.3867780

 Broyden mixing:
  rms(total) = 0.23212E+01    rms(broyden)= 0.23203E+01
  rms(prec ) = 0.24366E+01
  weight for this iteration     100.00

 eigenvalues of (default mixing * dielectric matrix)
  average eigenvalue GAMMA=   0.3063
  0.5834  0.3172  0.3172  0.1134  0.2002

 Free energy of the ion-electron system (eV)
  ---------------------------------------------------
  alpha Z        PSCENC =       380.03038077
  Ewald energy   TEWEN  =     94541.20530499
  -1/2 Hartree   DENC   =   -109951.08974225
  -exchange  EXHF       =         0.00000000
  -V(xc)+E(xc)   XCENC  =       594.00634991
  PAW double counting   =     12652.19303298   -12528.96995268
  entropy T*S    EENTRO =         0.00515921
  eigenvalues    EBANDS =     -2205.67190973
  atomic energy  EATOM  =     16253.85707884
  ---------------------------------------------------
  free energy    TOTEN  =      -264.43429795 eV

  energy without entropy =     -264.43945716  energy(sigma->0) =     -264.43601768


--------------------------------------------------------------------------------------------------------




----------------------------------------- Iteration    1(  11)  ---------------------------------------


    POTLOK:  cpu time    0.07: real time    0.07
    SETDIJ:  cpu time    0.01: real time    0.01
     EDDAV:  cpu time    3.62: real time    3.63
       DOS:  cpu time    0.00: real time    0.00
    CHARGE:  cpu time    0.10: real time    0.10
    MIXING:  cpu time    0.00: real time    0.00
    --------------------------------------------
      LOOP:  cpu time    3.82: real time    3.92

 eigenvalue-minimisations  :  1784
 total energy-change (2. order) : 0.2417071E+00  (-0.2166954E+00)
 number of electron     240.9999955 magnetization       0.0587679
 augmentation part       67.6754330 magnetization      -0.1933970

 Broyden mixing:
  rms(total) = 0.22140E+01    rms(broyden)= 0.22135E+01
  rms(prec ) = 0.24272E+01
  weight for this iteration     100.00

 eigenvalues of (default mixing * dielectric matrix)
  average eigenvalue GAMMA=   0.3240
  0.5282  0.4464  0.4464  0.1127  0.2052  0.2052

 Free energy of the ion-electron system (eV)
  ---------------------------------------------------
  alpha Z        PSCENC =       380.03038077
  Ewald energy   TEWEN  =     94541.20530499
  -1/2 Hartree   DENC   =   -109964.90585435
  -exchange  EXHF       =         0.00000000
  -V(xc)+E(xc)   XCENC  =       594.99700651
  PAW double counting   =     12679.30666242   -12555.51527128
  entropy T*S    EENTRO =        -0.03105625
  eigenvalues    EBANDS =     -2193.13684251
  atomic energy  EATOM  =     16253.85707884
  ---------------------------------------------------
  free energy    TOTEN  =      -264.19259086 eV

  energy without entropy =     -264.16153461  energy(sigma->0) =     -264.18223878


--------------------------------------------------------------------------------------------------------




----------------------------------------- Iteration    1(  12)  ---------------------------------------


    POTLOK:  cpu time    0.07: real time    0.07
    SETDIJ:  cpu time    0.01: real time    0.01
     EDDAV:  cpu time    4.22: real time    4.23
       DOS:  cpu time    0.00: real time    0.00
    CHARGE:  cpu time    0.10: real time    0.10
    MIXING:  cpu time    0.00: real time    0.00
    --------------------------------------------
      LOOP:  cpu time    4.42: real time    4.51

 eigenvalue-minimisations  :  2136
 total energy-change (2. order) : 0.1166462E+01  (-0.4104088E+00)
 number of electron     240.9999953 magnetization       0.0584453
 augmentation part       68.1424676 magnetization       0.1532051

 Broyden mixing:
  rms(total) = 0.19245E+01    rms(broyden)= 0.19238E+01
  rms(prec ) = 0.20097E+01
  weight for this iteration     100.00

 eigenvalues of (default mixing * dielectric matrix)
  average eigenvalue GAMMA=   0.3443
  0.5821  0.5821  0.5063  0.2503  0.2503  0.1120  0.1272

 Free energy of the ion-electron system (eV)
  ---------------------------------------------------
  alpha Z        PSCENC =       380.03038077
  Ewald energy   TEWEN  =     94541.20530499
  -1/2 Hartree   DENC   =   -109933.88797148
  -exchange  EXHF       =         0.00000000
  -V(xc)+E(xc)   XCENC  =       596.80384557
  PAW double counting   =     12737.51891288   -12613.22754305
  entropy T*S    EENTRO =         0.02933902
  eigenvalues    EBANDS =     -2225.35547686
  atomic energy  EATOM  =     16253.85707884
  ---------------------------------------------------
  free energy    TOTEN  =      -263.02612933 eV

  energy without entropy =     -263.05546835  energy(sigma->0) =     -263.03590900


--------------------------------------------------------------------------------------------------------




----------------------------------------- Iteration    1(  13)  ---------------------------------------


    POTLOK:  cpu time    0.07: real time    0.07
    SETDIJ:  cpu time    0.01: real time    0.01
     EDDAV:  cpu time    4.09: real time    4.10
       DOS:  cpu time    0.00: real time    0.00
    CHARGE:  cpu time    0.10: real time    0.10
    MIXING:  cpu time    0.00: real time    0.00
    --------------------------------------------
      LOOP:  cpu time    4.29: real time    4.37

 eigenvalue-minimisations  :  2064
 total energy-change (2. order) : 0.1334688E+01  (-0.1382709E+00)
 number of electron     240.9999955 magnetization       0.0777346
 augmentation part       68.4595069 magnetization       0.0973205

 Broyden mixing:
  rms(total) = 0.15420E+01    rms(broyden)= 0.15419E+01
  rms(prec ) = 0.16186E+01
  weight for this iteration     100.00

 eigenvalues of (default mixing * dielectric matrix)
  average eigenvalue GAMMA=   0.5171
  1.2060  1.2060  0.4068  0.4068  0.3821  0.2601  0.1124  0.1567

 Free energy of the ion-electron system (eV)
  ---------------------------------------------------
  alpha Z        PSCENC =       380.03038077
  Ewald energy   TEWEN  =     94541.20530499
  -1/2 Hartree   DENC   =   -109915.04548935
  -exchange  EXHF       =         0.00000000
  -V(xc)+E(xc)   XCENC  =       598.83183850
  PAW double counting   =     12799.48070738   -12674.47454101
  entropy T*S    EENTRO =        -0.00328778
  eigenvalues    EBANDS =     -2245.57343328
  atomic energy  EATOM  =     16253.85707884
  ---------------------------------------------------
  free energy    TOTEN  =      -261.69144094 eV

  energy without entropy =     -261.68815316  energy(sigma->0) =     -261.69034501


--------------------------------------------------------------------------------------------------------




----------------------------------------- Iteration    1(  14)  ---------------------------------------


    POTLOK:  cpu time    0.07: real time    0.07
    SETDIJ:  cpu time    0.01: real time    0.01
     EDDAV:  cpu time    4.18: real time    4.18
       DOS:  cpu time    0.00: real time    0.00
    CHARGE:  cpu time    0.10: real time    0.10
    MIXING:  cpu time    0.00: real time    0.00
    --------------------------------------------
      LOOP:  cpu time    4.37: real time    4.46

 eigenvalue-minimisations  :  2112
 total energy-change (2. order) : 0.2015495E+01  (-0.4729913E+00)
 number of electron     240.9999960 magnetization       0.0919155
 augmentation part       69.7635552 magnetization      -0.2587014

 Broyden mixing:
  rms(total) = 0.10778E+01    rms(broyden)= 0.10751E+01
  rms(prec ) = 0.11384E+01
  weight for this iteration     100.00

 eigenvalues of (default mixing * dielectric matrix)
  average eigenvalue GAMMA=   0.4841
  1.2598  1.2598  0.4068  0.4068  0.3815  0.2596  0.1607  0.1130  0.1090

 Free energy of the ion-electron system (eV)
  ---------------------------------------------------
  alpha Z        PSCENC =       380.03038077
  Ewald energy   TEWEN  =     94541.20530499
  -1/2 Hartree   DENC   =   -109848.22478422
  -exchange  EXHF       =         0.00000000
  -V(xc)+E(xc)   XCENC  =       606.42275936
  PAW double counting   =     13001.42748506   -12874.08213591
  entropy T*S    EENTRO =         0.01101781
  eigenvalues    EBANDS =     -2320.32305262
  atomic energy  EATOM  =     16253.85707884
  ---------------------------------------------------
  free energy    TOTEN  =      -259.67594592 eV

  energy without entropy =     -259.68696373  energy(sigma->0) =     -259.67961852


--------------------------------------------------------------------------------------------------------




----------------------------------------- Iteration    1(  15)  ---------------------------------------


    POTLOK:  cpu time    0.07: real time    0.07
    SETDIJ:  cpu time    0.01: real time    0.01
     EDDAV:  cpu time    3.60: real time    3.60
       DOS:  cpu time    0.00: real time    0.00
    CHARGE:  cpu time    0.10: real time    0.10
    MIXING:  cpu time    0.00: real time    0.00
    --------------------------------------------
      LOOP:  cpu time    3.79: real time    3.98

 eigenvalue-minimisations  :  1768
 total energy-change (2. order) :-0.1193049E+00  (-0.3021133E+00)
 number of electron     240.9999954 magnetization       0.0910482
 augmentation part       69.8708955 magnetization      -0.1571125

 Broyden mixing:
  rms(total) = 0.94650E+00    rms(broyden)= 0.94588E+00
  rms(prec ) = 0.98658E+00
  weight for this iteration     100.00

 eigenvalues of (default mixing * dielectric matrix)
  average eigenvalue GAMMA=   0.4630
  1.2742  1.2742  0.4085  0.4085  0.3752  0.2541  0.1123  0.2087  0.1507  0.1635

 Free energy of the ion-electron system (eV)
  ---------------------------------------------------
  alpha Z        PSCENC =       380.03038077
  Ewald energy   TEWEN  =     94541.20530499
  -1/2 Hartree   DENC   =   -109849.21631684
  -exchange  EXHF       =         0.00000000
  -V(xc)+E(xc)   XCENC  =       607.29389038
  PAW double counting   =     13019.19233851   -12892.05048876
  entropy T*S    EENTRO =         0.02990021
  eigenvalues    EBANDS =     -2320.13733896
  atomic energy  EATOM  =     16253.85707884
  ---------------------------------------------------
  free energy    TOTEN  =      -259.79525086 eV

  energy without entropy =     -259.82515106  energy(sigma->0) =     -259.80521759


--------------------------------------------------------------------------------------------------------




----------------------------------------- Iteration    1(  16)  ---------------------------------------


    POTLOK:  cpu time    0.07: real time    0.07
    SETDIJ:  cpu time    0.01: real time    0.01
     EDDAV:  cpu time    3.47: real time    3.48
       DOS:  cpu time    0.00: real time    0.00
    CHARGE:  cpu time    0.10: real time    0.10
    MIXING:  cpu time    0.00: real time    0.00
    --------------------------------------------
      LOOP:  cpu time    3.67: real time    3.76

 eigenvalue-minimisations  :  1696
 total energy-change (2. order) :-0.3903450E-01  (-0.2003608E-01)
 number of electron     240.9999954 magnetization       0.0880006
 augmentation part       69.9197404 magnetization      -0.2694136

 Broyden mixing:
  rms(total) = 0.10404E+01    rms(broyden)= 0.10403E+01
  rms(prec ) = 0.10936E+01
  weight for this iteration     100.00

 eigenvalues of (default mixing * dielectric matrix)
  average eigenvalue GAMMA=   0.4367
  1.2804  1.2804  0.4103  0.4103  0.3750  0.2475  0.2268  0.1123  0.1519  0.1543
  0.1543

 Free energy of the ion-electron system (eV)
  ---------------------------------------------------
  alpha Z        PSCENC =       380.03038077
  Ewald energy   TEWEN  =     94541.20530499
  -1/2 Hartree   DENC   =   -109846.62446800
  -exchange  EXHF       =         0.00000000
  -V(xc)+E(xc)   XCENC  =       607.35022247
  PAW double counting   =     13021.32362804   -12894.15073677
  entropy T*S    EENTRO =         0.01964033
  eigenvalues    EBANDS =     -2322.84533603
  atomic energy  EATOM  =     16253.85707884
  ---------------------------------------------------
  free energy    TOTEN  =      -259.83428535 eV

  energy without entropy =     -259.85392568  energy(sigma->0) =     -259.84083213


--------------------------------------------------------------------------------------------------------




----------------------------------------- Iteration    1(  17)  ---------------------------------------


    POTLOK:  cpu time    0.07: real time    0.07
    SETDIJ:  cpu time    0.01: real time    0.01
     EDDAV:  cpu time    3.88: real time    3.88
       DOS:  cpu time    0.00: real time    0.00
    CHARGE:  cpu time    0.10: real time    0.10
    MIXING:  cpu time    0.00: real time    0.00
    --------------------------------------------
      LOOP:  cpu time    4.07: real time    4.16

 eigenvalue-minimisations  :  1936
 total energy-change (2. order) : 0.4466835E-02  (-0.5555879E-02)
 number of electron     240.9999951 magnetization       0.0686039
 augmentation part       69.9078058 magnetization      -0.2787989

 Broyden mixing:
  rms(total) = 0.10736E+01    rms(broyden)= 0.10735E+01
  rms(prec ) = 0.11308E+01
  weight for this iteration     100.00

 eigenvalues of (default mixing * dielectric matrix)
  average eigenvalue GAMMA=   0.4814
  1.2702  1.2702  0.5398  0.5398  0.4172  0.4172  0.3841  0.1123  0.2623  0.2233
  0.1536  0.1871

 Free energy of the ion-electron system (eV)
  ---------------------------------------------------
  alpha Z        PSCENC =       380.03038077
  Ewald energy   TEWEN  =     94541.20530499
  -1/2 Hartree   DENC   =   -109845.85989337
  -exchange  EXHF       =         0.00000000
  -V(xc)+E(xc)   XCENC  =       607.60161939
  PAW double counting   =     13024.61151898   -12897.54884521
  entropy T*S    EENTRO =         0.03793601
  eigenvalues    EBANDS =     -2323.76491891
  atomic energy  EATOM  =     16253.85707884
  ---------------------------------------------------
  free energy    TOTEN  =      -259.82981852 eV

  energy without entropy =     -259.86775453  energy(sigma->0) =     -259.84246385


--------------------------------------------------------------------------------------------------------




----------------------------------------- Iteration    1(  18)  ---------------------------------------


    POTLOK:  cpu time    0.07: real time    0.08
    SETDIJ:  cpu time    0.01: real time    0.01
     EDDAV:  cpu time    4.05: real time    4.05
       DOS:  cpu time    0.00: real time    0.00
    CHARGE:  cpu time    0.10: real time    0.10
    MIXING:  cpu time    0.00: real time    0.00
    --------------------------------------------
      LOOP:  cpu time    4.25: real time    4.33

 eigenvalue-minimisations  :  2040
 total energy-change (2. order) :-0.1574013E-01  (-0.2964038E-01)
 number of electron     240.9999955 magnetization       0.0429058
 augmentation part       70.0405871 magnetization      -0.5776989

 Broyden mixing:
  rms(total) = 0.10453E+01    rms(broyden)= 0.10452E+01
  rms(prec ) = 0.11166E+01
  weight for this iteration     100.00

 eigenvalues of (default mixing * dielectric matrix)
  average eigenvalue GAMMA=   0.5154
  1.1546  1.1546  0.9954  0.9954  0.4087  0.4087  0.3737  0.1123  0.1527  0.2481
  0.2481  0.2242  0.2242

 Free energy of the ion-electron system (eV)
  ---------------------------------------------------
  alpha Z        PSCENC =       380.03038077
  Ewald energy   TEWEN  =     94541.20530499
  -1/2 Hartree   DENC   =   -109836.50853193
  -exchange  EXHF       =         0.00000000
  -V(xc)+E(xc)   XCENC  =       608.37483282
  PAW double counting   =     13046.89275962   -12920.19539055
  entropy T*S    EENTRO =         0.02988282
  eigenvalues    EBANDS =     -2333.53187603
  atomic energy  EATOM  =     16253.85707884
  ---------------------------------------------------
  free energy    TOTEN  =      -259.84555864 eV

  energy without entropy =     -259.87544147  energy(sigma->0) =     -259.85551958


--------------------------------------------------------------------------------------------------------




----------------------------------------- Iteration    1(  19)  ---------------------------------------


    POTLOK:  cpu time    0.07: real time    0.07
    SETDIJ:  cpu time    0.01: real time    0.01
     EDDAV:  cpu time    3.96: real time    3.96
       DOS:  cpu time    0.00: real time    0.00
    CHARGE:  cpu time    0.10: real time    0.10
    MIXING:  cpu time    0.00: real time    0.00
    --------------------------------------------
      LOOP:  cpu time    4.15: real time    4.23

 eigenvalue-minimisations  :  1984
 total energy-change (2. order) : 0.1705944E+00  (-0.2582164E+00)
 number of electron     240.9999959 magnetization       0.0172649
 augmentation part       70.1356167 magnetization       0.1939161

 Broyden mixing:
  rms(total) = 0.10042E+01    rms(broyden)= 0.10034E+01
  rms(prec ) = 0.11389E+01
  weight for this iteration     100.00

 eigenvalues of (default mixing * dielectric matrix)
  average eigenvalue GAMMA=   0.5178
  1.1870  1.1870  1.1219  1.1219  0.4250  0.4250  0.3419  0.2621  0.2621  0.2467
  0.2467  0.1123  0.1551  0.1551

 Free energy of the ion-electron system (eV)
  ---------------------------------------------------
  alpha Z        PSCENC =       380.03038077
  Ewald energy   TEWEN  =     94541.20530499
  -1/2 Hartree   DENC   =   -109848.46281360
  -exchange  EXHF       =         0.00000000
  -V(xc)+E(xc)   XCENC  =       609.66852621
  PAW double counting   =     13078.04193646   -12952.15594451
  entropy T*S    EENTRO =         0.00712647
  eigenvalues    EBANDS =     -2321.86655992
  atomic energy  EATOM  =     16253.85707884
  ---------------------------------------------------
  free energy    TOTEN  =      -259.67496428 eV

  energy without entropy =     -259.68209075  energy(sigma->0) =     -259.67733977


--------------------------------------------------------------------------------------------------------




----------------------------------------- Iteration    1(  20)  ---------------------------------------


    POTLOK:  cpu time    0.07: real time    0.07
    SETDIJ:  cpu time    0.01: real time    0.01
     EDDAV:  cpu time    4.06: real time    4.07
       DOS:  cpu time    0.00: real time    0.00
    CHARGE:  cpu time    0.10: real time    0.10
    MIXING:  cpu time    0.00: real time    0.00
    --------------------------------------------
      LOOP:  cpu time    4.26: real time    4.35

 eigenvalue-minimisations  :  2048
 total energy-change (2. order) : 0.2397353E+00  (-0.4182721E-01)
 number of electron     240.9999958 magnetization      -0.0146460
 augmentation part       70.2025972 magnetization      -0.0203423

 Broyden mixing:
  rms(total) = 0.90724E+00    rms(broyden)= 0.90713E+00
  rms(prec ) = 0.10506E+01
  weight for this iteration     100.00

 eigenvalues of (default mixing * dielectric matrix)
  average eigenvalue GAMMA=   0.5652
  1.3096  1.3096  1.2675  1.2675  0.4467  0.4467  0.3973  0.3973  0.4218  0.1123
  0.2944  0.2519  0.1530  0.2013  0.2013

 Free energy of the ion-electron system (eV)
  ---------------------------------------------------
  alpha Z        PSCENC =       380.03038077
  Ewald energy   TEWEN  =     94541.20530499
  -1/2 Hartree   DENC   =   -109850.48273228
  -exchange  EXHF       =         0.00000000
  -V(xc)+E(xc)   XCENC  =       610.65895169
  PAW double counting   =     13100.84248496   -12975.47582850
  entropy T*S    EENTRO =        -0.00777212
  eigenvalues    EBANDS =     -2320.06309735
  atomic energy  EATOM  =     16253.85707884
  ---------------------------------------------------
  free energy    TOTEN  =      -259.43522900 eV

  energy without entropy =     -259.42745688  energy(sigma->0) =     -259.43263829


--------------------------------------------------------------------------------------------------------




----------------------------------------- Iteration    1(  21)  ---------------------------------------


    POTLOK:  cpu time    0.07: real time    0.07
    SETDIJ:  cpu time    0.01: real time    0.01
     EDDAV:  cpu time    4.03: real time    4.03
       DOS:  cpu time    0.00: real time    0.00
    CHARGE:  cpu time    0.10: real time    0.10
    MIXING:  cpu time    0.00: real time    0.00
    --------------------------------------------
      LOOP:  cpu time    4.23: real time    4.31

 eigenvalue-minimisations  :  2032
 total energy-change (2. order) : 0.3972627E+00  (-0.4808102E-01)
 number of electron     240.9999959 magnetization      -0.0342468
 augmentation part       70.0942496 magnetization       0.1087972

 Broyden mixing:
  rms(total) = 0.67528E+00    rms(broyden)= 0.67516E+00
  rms(prec ) = 0.79967E+00
  weight for this iteration     100.00

 eigenvalues of (default mixing * dielectric matrix)
  average eigenvalue GAMMA=   0.5695
  1.5759  1.5759  0.9162  0.9162  0.6515  0.6515  0.4129  0.4129  0.3762  0.3762
  0.3292  0.1123  0.2537  0.1530  0.1988  0.1988

 Free energy of the ion-electron system (eV)
  ---------------------------------------------------
  alpha Z        PSCENC =       380.03038077
  Ewald energy   TEWEN  =     94541.20530499
  -1/2 Hartree   DENC   =   -109869.18696651
  -exchange  EXHF       =         0.00000000
  -V(xc)+E(xc)   XCENC  =       611.43282814
  PAW double counting   =     13121.20336733   -12996.72630648
  entropy T*S    EENTRO =        -0.01390532
  eigenvalues    EBANDS =     -2300.83974804
  atomic energy  EATOM  =     16253.85707884
  ---------------------------------------------------
  free energy    TOTEN  =      -259.03796628 eV

  energy without entropy =     -259.02406096  energy(sigma->0) =     -259.03333117


--------------------------------------------------------------------------------------------------------




----------------------------------------- Iteration    1(  22)  ---------------------------------------


    POTLOK:  cpu time    0.07: real time    0.07
    SETDIJ:  cpu time    0.01: real time    0.01
     EDDAV:  cpu time    3.94: real time    3.94
       DOS:  cpu time    0.00: real time    0.00
    CHARGE:  cpu time    0.17: real time    0.17
    MIXING:  cpu time    0.00: real time    0.00
    --------------------------------------------
      LOOP:  cpu time    4.20: real time    4.29

 eigenvalue-minimisations  :  1976
 total energy-change (2. order) : 0.1357379E+00  (-0.4882666E-01)
 number of electron     240.9999959 magnetization      -0.0259423
 augmentation part       70.0060220 magnetization       0.2565126

 Broyden mixing:
  rms(total) = 0.54936E+00    rms(broyden)= 0.54885E+00
  rms(prec ) = 0.62826E+00
  weight for this iteration     100.00

 eigenvalues of (default mixing * dielectric matrix)
  average eigenvalue GAMMA=   0.5451
  1.5746  1.5746  0.7999  0.7999  0.7626  0.7626  0.4048  0.4048  0.3622  0.3356
  0.3356  0.1123  0.2619  0.1530  0.2106  0.2106  0.2013

 Free energy of the ion-electron system (eV)
  ---------------------------------------------------
  alpha Z        PSCENC =       380.03038077
  Ewald energy   TEWEN  =     94541.20530499
  -1/2 Hartree   DENC   =   -109882.87569111
  -exchange  EXHF       =         0.00000000
  -V(xc)+E(xc)   XCENC  =       612.14689110
  PAW double counting   =     13144.72149188   -13020.81430210
  entropy T*S    EENTRO =         0.01237388
  eigenvalues    EBANDS =     -2287.18575665
  atomic energy  EATOM  =     16253.85707884
  ---------------------------------------------------
  free energy    TOTEN  =      -258.90222839 eV

  energy without entropy =     -258.91460228  energy(sigma->0) =     -258.90635302


--------------------------------------------------------------------------------------------------------




----------------------------------------- Iteration    1(  23)  ---------------------------------------


    POTLOK:  cpu time    0.07: real time    0.07
    SETDIJ:  cpu time    0.01: real time    0.01
     EDDAV:  cpu time    3.33: real time    3.34
       DOS:  cpu time    0.00: real time    0.00
    CHARGE:  cpu time    0.10: real time    0.10
    MIXING:  cpu time    0.01: real time    0.01
    --------------------------------------------
      LOOP:  cpu time    3.53: real time    3.62

 eigenvalue-minimisations  :  1608
 total energy-change (2. order) :-0.1439971E-01  (-0.8322011E-02)
 number of electron     240.9999960 magnetization      -0.0113568
 augmentation part       70.0182186 magnetization       0.2855209

 Broyden mixing:
  rms(total) = 0.52115E+00    rms(broyden)= 0.52112E+00
  rms(prec ) = 0.60279E+00
  weight for this iteration     100.00

 eigenvalues of (default mixing * dielectric matrix)
  average eigenvalue GAMMA=   0.5975
  1.6806  1.6806  0.9511  0.9511  0.8000  0.8000  0.5116  0.5116  0.4441  0.4441
  0.3746  0.3746  0.1123  0.3129  0.2515  0.1530  0.2003  0.2003

 Free energy of the ion-electron system (eV)
  ---------------------------------------------------
  alpha Z        PSCENC =       380.03038077
  Ewald energy   TEWEN  =     94541.20530499
  -1/2 Hartree   DENC   =   -109881.31419796
  -exchange  EXHF       =         0.00000000
  -V(xc)+E(xc)   XCENC  =       612.14192455
  PAW double counting   =     13146.46234996   -13022.54134608
  entropy T*S    EENTRO =         0.01276824
  eigenvalues    EBANDS =     -2288.77089142
  atomic energy  EATOM  =     16253.85707884
  ---------------------------------------------------
  free energy    TOTEN  =      -258.91662810 eV

  energy without entropy =     -258.92939634  energy(sigma->0) =     -258.92088418


--------------------------------------------------------------------------------------------------------




----------------------------------------- Iteration    1(  24)  ---------------------------------------


    POTLOK:  cpu time    0.07: real time    0.07
    SETDIJ:  cpu time    0.01: real time    0.01
     EDDAV:  cpu time    3.98: real time    3.98
       DOS:  cpu time    0.00: real time    0.00
    CHARGE:  cpu time    0.10: real time    0.10
    MIXING:  cpu time    0.01: real time    0.01
    --------------------------------------------
      LOOP:  cpu time    4.17: real time    4.36

 eigenvalue-minimisations  :  2000
 total energy-change (2. order) : 0.1205124E-01  (-0.7982467E-02)
 number of electron     240.9999958 magnetization       0.0191480
 augmentation part       69.9731844 magnetization       0.2493429

 Broyden mixing:
  rms(total) = 0.44363E+00    rms(broyden)= 0.44356E+00
  rms(prec ) = 0.50984E+00
  weight for this iteration     100.00

 eigenvalues of (default mixing * dielectric matrix)
  average eigenvalue GAMMA=   0.6325
  1.7079  1.7079  1.1915  1.1915  0.8919  0.8919  0.5732  0.5732  0.4627  0.4627
  0.3691  0.3691  0.4014  0.1123  0.3065  0.2511  0.1530  0.2005  0.2005

 Free energy of the ion-electron system (eV)
  ---------------------------------------------------
  alpha Z        PSCENC =       380.03038077
  Ewald energy   TEWEN  =     94541.20530499
  -1/2 Hartree   DENC   =   -109887.25337870
  -exchange  EXHF       =         0.00000000
  -V(xc)+E(xc)   XCENC  =       611.90280540
  PAW double counting   =     13149.01454384   -13025.29788035
  entropy T*S    EENTRO =         0.02187042
  eigenvalues    EBANDS =     -2282.38530208
  atomic energy  EATOM  =     16253.85707884
  ---------------------------------------------------
  free energy    TOTEN  =      -258.90457686 eV

  energy without entropy =     -258.92644728  energy(sigma->0) =     -258.91186700


--------------------------------------------------------------------------------------------------------




----------------------------------------- Iteration    1(  25)  ---------------------------------------


    POTLOK:  cpu time    0.07: real time    0.08
    SETDIJ:  cpu time    0.01: real time    0.01
     EDDAV:  cpu time    3.77: real time    3.77
       DOS:  cpu time    0.00: real time    0.00
    CHARGE:  cpu time    0.10: real time    0.10
    MIXING:  cpu time    0.01: real time    0.01
    --------------------------------------------
      LOOP:  cpu time    3.97: real time    4.05

 eigenvalue-minimisations  :  1872
 total energy-change (2. order) :-0.2500227E+00  (-0.1635321E-01)
 number of electron     240.9999952 magnetization       0.0333117
 augmentation part       69.9389086 magnetization      -0.3192318

 Broyden mixing:
  rms(total) = 0.41365E+00    rms(broyden)= 0.41286E+00
  rms(prec ) = 0.43785E+00
  weight for this iteration     100.00

 eigenvalues of (default mixing * dielectric matrix)
  average eigenvalue GAMMA=   0.6182
  1.6702  1.6702  1.2235  1.2235  0.9308  0.9308  0.5758  0.5758  0.4564  0.4564
  0.3707  0.3707  0.3885  0.1123  0.3014  0.3014  0.2511  0.1530  0.2005  0.2005

 Free energy of the ion-electron system (eV)
  ---------------------------------------------------
  alpha Z        PSCENC =       380.03038077
  Ewald energy   TEWEN  =     94541.20530499
  -1/2 Hartree   DENC   =   -109891.93747757
  -exchange  EXHF       =         0.00000000
  -V(xc)+E(xc)   XCENC  =       611.80769757
  PAW double counting   =     13159.07853293   -13035.39219778
  entropy T*S    EENTRO =         0.03374752
  eigenvalues    EBANDS =     -2277.83766678
  atomic energy  EATOM  =     16253.85707884
  ---------------------------------------------------
  free energy    TOTEN  =      -259.15459952 eV

  energy without entropy =     -259.18834704  energy(sigma->0) =     -259.16584869


--------------------------------------------------------------------------------------------------------




----------------------------------------- Iteration    1(  26)  ---------------------------------------


    POTLOK:  cpu time    0.07: real time    0.07
    SETDIJ:  cpu time    0.01: real time    0.01
     EDDAV:  cpu time    3.11: real time    3.12
       DOS:  cpu time    0.00: real time    0.00
    CHARGE:  cpu time    0.10: real time    0.10
    MIXING:  cpu time    0.01: real time    0.01
    --------------------------------------------
      LOOP:  cpu time    3.31: real time    3.40

 eigenvalue-minimisations  :  1480
 total energy-change (2. order) :-0.1458456E+00  (-0.6518577E-02)
 number of electron     240.9999952 magnetization       0.0855087
 augmentation part       69.9374208 magnetization      -0.2117493

 Broyden mixing:
  rms(total) = 0.34286E+00    rms(broyden)= 0.34282E+00
  rms(prec ) = 0.37053E+00
  weight for this iteration     100.00

 eigenvalues of (default mixing * dielectric matrix)
  average eigenvalue GAMMA=   0.6476
  1.5795  1.5795  1.3491  1.3491  0.9468  0.9468  0.7469  0.7469  0.5201  0.5201
  0.4690  0.4690  0.3744  0.3744  0.4020  0.1123  0.3078  0.2510  0.1530  0.2005
  0.2005

 Free energy of the ion-electron system (eV)
  ---------------------------------------------------
  alpha Z        PSCENC =       380.03038077
  Ewald energy   TEWEN  =     94541.20530499
  -1/2 Hartree   DENC   =   -109891.98406187
  -exchange  EXHF       =         0.00000000
  -V(xc)+E(xc)   XCENC  =       611.72260488
  PAW double counting   =     13159.62264426   -13035.90299648
  entropy T*S    EENTRO =         0.03365485
  eigenvalues    EBANDS =     -2277.88505540
  atomic energy  EATOM  =     16253.85707884
  ---------------------------------------------------
  free energy    TOTEN  =      -259.30044515 eV

  energy without entropy =     -259.33410000  energy(sigma->0) =     -259.31166343


--------------------------------------------------------------------------------------------------------




----------------------------------------- Iteration    1(  27)  ---------------------------------------


    POTLOK:  cpu time    0.07: real time    0.07
    SETDIJ:  cpu time    0.01: real time    0.01
     EDDAV:  cpu time    3.66: real time    3.66
       DOS:  cpu time    0.00: real time    0.00
    CHARGE:  cpu time    0.10: real time    0.10
    MIXING:  cpu time    0.01: real time    0.01
    --------------------------------------------
      LOOP:  cpu time    3.85: real time    3.95

 eigenvalue-minimisations  :  1808
 total energy-change (2. order) :-0.3610259E+00  (-0.1419597E-01)
 number of electron     240.9999952 magnetization       0.1281896
 augmentation part       69.9296294 magnetization      -0.0632876

 Broyden mixing:
  rms(total) = 0.22066E+00    rms(broyden)= 0.22047E+00
  rms(prec ) = 0.23904E+00
  weight for this iteration     100.00

 eigenvalues of (default mixing * dielectric matrix)
  average eigenvalue GAMMA=   0.6685
  1.5451  1.5451  1.3598  1.3598  1.2687  1.2687  0.6446  0.6446  0.6732  0.6732
  0.4712  0.4712  0.3733  0.3733  0.4051  0.4051  0.1123  0.3082  0.2510  0.1530
  0.2005  0.2005

 Free energy of the ion-electron system (eV)
  ---------------------------------------------------
  alpha Z        PSCENC =       380.03038077
  Ewald energy   TEWEN  =     94541.20530499
  -1/2 Hartree   DENC   =   -109897.77044780
  -exchange  EXHF       =         0.00000000
  -V(xc)+E(xc)   XCENC  =       611.38513140
  PAW double counting   =     13164.79663388   -13041.21334662
  entropy T*S    EENTRO =         0.00905443
  eigenvalues    EBANDS =     -2271.96126098
  atomic energy  EATOM  =     16253.85707884
  ---------------------------------------------------
  free energy    TOTEN  =      -259.66147109 eV

  energy without entropy =     -259.67052552  energy(sigma->0) =     -259.66448924


--------------------------------------------------------------------------------------------------------




----------------------------------------- Iteration    1(  28)  ---------------------------------------


    POTLOK:  cpu time    0.07: real time    0.08
    SETDIJ:  cpu time    0.01: real time    0.01
     EDDAV:  cpu time    3.83: real time    3.83
       DOS:  cpu time    0.00: real time    0.00
    CHARGE:  cpu time    0.10: real time    0.10
    MIXING:  cpu time    0.01: real time    0.01
    --------------------------------------------
      LOOP:  cpu time    4.03: real time    4.10

 eigenvalue-minimisations  :  1912
 total energy-change (2. order) :-0.2131922E+00  (-0.8825475E-02)
 number of electron     240.9999951 magnetization       0.1531001
 augmentation part       69.9231136 magnetization      -0.0928708

 Broyden mixing:
  rms(total) = 0.19508E+00    rms(broyden)= 0.19475E+00
  rms(prec ) = 0.20454E+00
  weight for this iteration     100.00

 eigenvalues of (default mixing * dielectric matrix)
  average eigenvalue GAMMA=   0.6793
  1.5948  1.5948  1.4993  1.4993  1.2767  1.2767  0.7580  0.7580  0.5927  0.5927
  0.4711  0.4711  0.4384  0.4384  0.3718  0.3718  0.3935  0.1123  0.3083  0.2511
  0.1530  0.2005  0.2005

 Free energy of the ion-electron system (eV)
  ---------------------------------------------------
  alpha Z        PSCENC =       380.03038077
  Ewald energy   TEWEN  =     94541.20530499
  -1/2 Hartree   DENC   =   -109903.93902650
  -exchange  EXHF       =         0.00000000
  -V(xc)+E(xc)   XCENC  =       611.36207770
  PAW double counting   =     13172.00800563   -13048.54374253
  entropy T*S    EENTRO =        -0.01962011
  eigenvalues    EBANDS =     -2265.83512207
  atomic energy  EATOM  =     16253.85707884
  ---------------------------------------------------
  free energy    TOTEN  =      -259.87466327 eV

  energy without entropy =     -259.85504316  energy(sigma->0) =     -259.86812323


--------------------------------------------------------------------------------------------------------




----------------------------------------- Iteration    1(  29)  ---------------------------------------


    POTLOK:  cpu time    0.08: real time    0.08
    SETDIJ:  cpu time    0.01: real time    0.01
     EDDAV:  cpu time    3.84: real time    3.84
       DOS:  cpu time    0.00: real time    0.00
    CHARGE:  cpu time    0.10: real time    0.10
    MIXING:  cpu time    0.01: real time    0.01
    --------------------------------------------
      LOOP:  cpu time    4.04: real time    4.11

 eigenvalue-minimisations  :  1920
 total energy-change (2. order) :-0.1863356E+00  (-0.4734971E-02)
 number of electron     240.9999951 magnetization       0.1860945
 augmentation part       69.9434914 magnetization      -0.1042206

 Broyden mixing:
  rms(total) = 0.19545E+00    rms(broyden)= 0.19534E+00
  rms(prec ) = 0.20933E+00
  weight for this iteration     100.00

 eigenvalues of (default mixing * dielectric matrix)
  average eigenvalue GAMMA=   0.7102
  1.7664  1.7664  1.2666  1.2666  1.4437  1.4437  0.9462  0.9462  0.6598  0.6598
  0.5113  0.5113  0.5246  0.5246  0.3727  0.3727  0.4179  0.4179  0.1123  0.3082
  0.2511  0.1530  0.2005  0.2005

 Free energy of the ion-electron system (eV)
  ---------------------------------------------------
  alpha Z        PSCENC =       380.03038077
  Ewald energy   TEWEN  =     94541.20530499
  -1/2 Hartree   DENC   =   -109903.63912071
  -exchange  EXHF       =         0.00000000
  -V(xc)+E(xc)   XCENC  =       611.33828161
  PAW double counting   =     13174.00078083   -13050.46508002
  entropy T*S    EENTRO =        -0.02455426
  eigenvalues    EBANDS =     -2266.36407097
  atomic energy  EATOM  =     16253.85707884
  ---------------------------------------------------
  free energy    TOTEN  =      -260.06099892 eV

  energy without entropy =     -260.03644465  energy(sigma->0) =     -260.05281416


--------------------------------------------------------------------------------------------------------




----------------------------------------- Iteration    1(  30)  ---------------------------------------


    POTLOK:  cpu time    0.07: real time    0.07
    SETDIJ:  cpu time    0.01: real time    0.01
     EDDAV:  cpu time    3.93: real time    3.93
       DOS:  cpu time    0.00: real time    0.00
    CHARGE:  cpu time    0.10: real time    0.10
    MIXING:  cpu time    0.01: real time    0.01
    --------------------------------------------
      LOOP:  cpu time    4.12: real time    4.20

 eigenvalue-minimisations  :  1968
 total energy-change (2. order) :-0.1671439E+00  (-0.4156600E-02)
 number of electron     240.9999952 magnetization       0.2133725
 augmentation part       69.9539578 magnetization       0.0230244

 Broyden mixing:
  rms(total) = 0.11264E+00    rms(broyden)= 0.11252E+00
  rms(prec ) = 0.12532E+00
  weight for this iteration     100.00

 eigenvalues of (default mixing * dielectric matrix)
  average eigenvalue GAMMA=   0.7309
  1.8664  1.8664  1.7873  1.2733  1.2733  1.3525  1.0690  1.0690  0.6332  0.6332
  0.6047  0.6047  0.4917  0.4917  0.3724  0.3724  0.4439  0.4439  0.3989  0.1123
  0.3082  0.2511  0.1530  0.2005  0.2005

 Free energy of the ion-electron system (eV)
  ---------------------------------------------------
  alpha Z        PSCENC =       380.03038077
  Ewald energy   TEWEN  =     94541.20530499
  -1/2 Hartree   DENC   =   -109906.14319253
  -exchange  EXHF       =         0.00000000
  -V(xc)+E(xc)   XCENC  =       611.31139360
  PAW double counting   =     13177.95049066   -13054.52205475
  entropy T*S    EENTRO =        -0.02707845
  eigenvalues    EBANDS =     -2263.89046595
  atomic energy  EATOM  =     16253.85707884
  ---------------------------------------------------
  free energy    TOTEN  =      -260.22814282 eV

  energy without entropy =     -260.20106437  energy(sigma->0) =     -260.21911667


--------------------------------------------------------------------------------------------------------




----------------------------------------- Iteration    1(  31)  ---------------------------------------


    POTLOK:  cpu time    0.07: real time    0.07
    SETDIJ:  cpu time    0.01: real time    0.01
     EDDAV:  cpu time    3.95: real time    3.95
       DOS:  cpu time    0.00: real time    0.00
    CHARGE:  cpu time    0.10: real time    0.10
    MIXING:  cpu time    0.01: real time    0.01
    --------------------------------------------
      LOOP:  cpu time    4.15: real time    4.22

 eigenvalue-minimisations  :  1984
 total energy-change (2. order) :-0.1150709E+00  (-0.3856125E-02)
 number of electron     240.9999954 magnetization       0.2510734
[...]
     39      -8.4859      1.00000
     40      -8.3673      1.00000
     41      -8.2400      1.00000
     42      -8.1937      1.00000
     43      -8.1553      1.00000
     44      -8.1307      1.00000
     45      -8.0116      1.00000
     46      -7.9793      1.00000
     47      -7.9228      1.00000
     48      -7.8085      1.00000
     49      -7.7427      1.00000
     50      -7.7364      1.00000
     51      -7.5880      1.00000
     52      -7.5856      1.00000
     53      -7.5649      1.00000
     54      -7.5458      1.00000
     55      -7.5353      1.00000
     56      -7.4852      1.00000
     57      -7.4517      1.00000
     58      -7.3753      1.00000
     59      -7.3151      1.00000
     60      -7.2866      1.00000
     61      -7.2742      1.00000
     62      -7.1665      1.00000
     63      -7.0108      1.00000
     64      -6.9463      1.00000
     65      -6.9151      1.00000
     66      -6.8796      1.00000
     67      -6.8291      1.00000
     68      -6.6708      1.00000
     69      -6.6604      1.00000
     70      -6.6252      1.00000
     71      -6.4981      1.00000
     72      -6.4760      1.00000
     73      -6.4591      1.00000
     74      -6.4258      1.00000
     75      -6.4167      1.00000
     76      -6.3851      1.00000
     77      -6.2535      1.00000
     78      -6.1989      1.00000
     79      -6.1797      1.00000
     80      -6.1615      1.00000
     81      -6.1293      1.00000
     82      -6.0426      1.00000
     83      -6.0027      1.00000
     84      -5.9740      1.00000
     85      -5.8709      1.00000
     86      -5.8430      1.00000
     87      -5.8262      1.00000
     88      -5.7207      1.00000
     89      -5.7073      1.00000
     90      -5.6633      1.00000
     91      -5.6217      1.00000
     92      -5.6134      1.00000
     93      -5.5478      1.00000
     94      -5.5450      1.00000
     95      -5.4973      1.00000
     96      -5.4062      1.00000
     97      -5.2742      1.00000
     98      -5.1598      1.00000
     99      -5.0521      1.00000
    100      -4.9690      1.00000
    101      -4.9442      1.00000
    102      -4.8898      1.00000
    103      -4.7606      1.00000
    104      -4.7168      1.00000
    105      -4.6192      1.00000
    106      -4.6023      1.00000
    107      -4.5202      1.00000
    108      -4.4933      1.00000
    109      -4.4867      1.00000
    110      -4.4068      1.00000
    111      -4.3402      1.00000
    112      -4.1386      1.00000
    113      -4.0608      1.00000
    114      -3.9388      1.00000
    115      -3.8827      1.00000
    116      -3.7823      1.00000
    117      -3.7244      1.00000
    118      -3.6829      1.00000
    119      -3.6485      1.00000
    120      -3.4682      1.00010
    121      -2.7625      0.10673
    122      -2.1206     -0.00000
    123      -1.9050     -0.00000
    124      -1.8683     -0.00000
    125      -1.8454     -0.00000
    126      -1.7274     -0.00000
    127      -1.6893     -0.00000
    128      -1.6346     -0.00000
    129      -1.4882     -0.00000
    130      -1.4478     -0.00000
    131      -1.3276     -0.00000
    132      -1.3185     -0.00000
    133      -0.8173     -0.00000
    134      -0.4025     -0.00000
    135      -0.1530     -0.00000
    136      -0.1367     -0.00000
    137      -0.0254     -0.00000
    138       0.0155     -0.00000
    139       0.0623     -0.00000
    140       0.1810     -0.00000
    141       0.2868     -0.00000
    142       0.3005     -0.00000
    143       0.3422     -0.00000
    144       0.3795     -0.00000


--------------------------------------------------------------------------------------------------------


 soft charge-density along one line, spin component           1
         0         1         2         3         4         5         6         7         8         9
 total charge-density along one line
 
 soft charge-density along one line, spin component           2
         0         1         2         3         4         5         6         7         8         9
 total charge-density along one line
 
 pseudopotential strength for first ion, spin component:           1
 24.685   0.019  -0.000   0.133   0.185  -0.000   0.023   0.033
  0.019   0.025  -0.000   0.002   0.003  -0.000   0.000   0.001
 -0.000  -0.000  -7.358   0.000  -0.000  -0.179   0.000  -0.000
  0.133   0.002   0.000  -7.207   0.016   0.000  -0.155   0.002
  0.185   0.003  -0.000   0.016  -7.366  -0.000   0.002  -0.180
 -0.000  -0.000  -0.179   0.000  -0.000   0.171   0.000  -0.000
  0.023   0.000   0.000  -0.155   0.002   0.000   0.175   0.000
  0.033   0.001  -0.000   0.002  -0.180  -0.000   0.000   0.171
 pseudopotential strength for first ion, spin component:           2
 24.656   0.019   0.000   0.136   0.170   0.000   0.024   0.030
  0.019   0.025  -0.000   0.002   0.003  -0.000   0.000   0.001
  0.000  -0.000  -7.210  -0.000   0.000  -0.155  -0.000   0.000
  0.136   0.002  -0.000  -7.328   0.047  -0.000  -0.174   0.007
  0.170   0.003   0.000   0.047  -7.220   0.000   0.007  -0.156
  0.000  -0.000  -0.155  -0.000   0.000   0.175  -0.000   0.000
  0.024   0.000  -0.000  -0.174   0.007  -0.000   0.172   0.001
  0.030   0.001   0.000   0.007  -0.156   0.000   0.001   0.175
 total augmentation occupancy for first ion, spin component:           1
  1.877   0.407   0.000   0.064   0.077  -0.000   0.055   0.083
  0.407   0.426  -0.000  -0.292  -0.386  -0.000   0.187   0.254
  0.000  -0.000   1.686  -0.000  -0.000  -0.763  -0.000   0.000
  0.064  -0.292  -0.000   1.673   0.022  -0.000  -0.725   0.060
  0.077  -0.386  -0.000   0.022   1.642   0.000   0.061  -0.758
 -0.000  -0.000  -0.763  -0.000   0.000   0.475   0.000  -0.000
  0.055   0.187  -0.000  -0.725   0.061   0.000   0.441  -0.041
  0.083   0.254   0.000   0.060  -0.758  -0.000  -0.041   0.457
 total augmentation occupancy for first ion, spin component:           2
 -0.001   0.004   0.000   0.005  -0.018   0.000  -0.011   0.013
  0.004  -0.032  -0.000  -0.017   0.057   0.000   0.032  -0.055
  0.000  -0.000   0.116  -0.000   0.000   0.029  -0.000   0.000
  0.005  -0.017  -0.000  -0.137   0.029  -0.000  -0.038   0.008
 -0.018   0.057   0.000   0.029   0.114   0.000   0.003   0.025
  0.000   0.000   0.029  -0.000   0.000  -0.060   0.000  -0.000
 -0.011   0.032  -0.000  -0.038   0.003   0.000   0.042  -0.009
  0.013  -0.055   0.000   0.008   0.025  -0.000  -0.009  -0.054


------------------------ aborting loop because EDIFF is reached ----------------------------------------


    CHARGE:  cpu time    0.10: real time    0.10
    FORLOC:  cpu time    0.01: real time    0.01
    FORNL :  cpu time    1.47: real time    1.47
    STRESS:  cpu time    2.26: real time    2.27
    FORCOR:  cpu time    0.07: real time    0.07
    FORHAR:  cpu time    0.01: real time    0.02
    MIXING:  cpu time    0.00: real time    0.00

  FORCE on cell =-STRESS in cart. coord.  units (eV):
  Direction    XX          YY          ZZ          XY          YZ          ZX
  --------------------------------------------------------------------------------------
  Alpha Z   380.03038   380.03038   380.03038
  Ewald   98486.09333104368.77805************    49.97051    25.67195  -481.32310
  Hartree103197.48121107791.93592************    15.08510     6.00520  -429.47640
  E(xc)   -1174.37616 -1175.86025 -1174.78808     0.16659     0.20612    -0.14132
  Local  ************************204867.54002   -54.39380   -26.00147   900.30753
  n-local   285.89685   302.86795   287.18515    -1.58756    -1.73518     2.21477
  augment  1456.01660  1457.45423  1476.93450    -2.18639    -0.47505     3.56206
  Kinetic  3354.06226  3338.94421  3400.87149    -6.95956    -3.66316     5.82608
  Fock        0.00000     0.00000     0.00000     0.00000     0.00000     0.00000
  -------------------------------------------------------------------------------------
  Total     -25.04910     8.88351   -21.24739     0.09488     0.00841     0.96962
  in kB     -44.55801    15.80223   -37.79543     0.16877     0.01496     1.72478
  external pressure =      -22.18 kB  Pullay stress =        0.00 kB


 VOLUME and BASIS-vectors are now :
 -----------------------------------------------------------------------------
  energy-cutoff  :      367.69
  volume of cell :      900.69
      direct lattice vectors                 reciprocal lattice vectors
    10.307999610  0.000000000  0.000000000     0.097012033  0.000000000  0.000000000
     0.000000000  2.854000090  0.000000000     0.000000000  0.350385413  0.000000000
     0.000000000  0.000000000 30.615999220     0.000000000  0.000000000  0.032662661

  length of vectors
    10.307999610  2.854000090 30.615999220     0.097012033  0.350385413  0.032662661


 FORCES acting on ions
    electron-ion (+dipol)            ewald-force                    non-local-force                 convergence-correction
 -----------------------------------------------------------------------------------------------
   -.255E+03 0.172E-02 -.462E+03   0.282E+03 -.121E-02 0.483E+03   -.283E+02 -.145E-02 -.218E+02   0.220E-02 0.309E-05 0.110E+00
   0.264E+03 0.188E-05 -.885E+03   -.291E+03 -.203E-06 0.865E+03   0.282E+02 -.113E-04 0.206E+02   -.160E-01 0.102E-04 0.825E-01
   0.285E+03 -.949E+00 0.173E+04   -.314E+03 0.867E+00 -.174E+04   0.284E+02 0.711E-01 0.196E+02   -.139E-01 -.375E-02 -.507E-02
   -.181E+02 0.527E-01 0.182E+04   0.259E+02 -.548E-01 -.185E+04   -.784E+01 -.261E-02 0.303E+02   0.541E-01 -.174E-02 -.248E-01
   -.194E+03 0.105E-04 -.963E+03   0.215E+03 -.516E-06 0.937E+03   -.216E+02 -.625E-05 0.269E+02   -.549E-03 0.190E-05 0.156E+00
   0.186E+03 0.151E-02 -.396E+03   -.207E+03 -.181E-02 0.423E+03   0.219E+02 -.995E-04 -.287E+02   0.328E-02 0.101E-05 0.946E-01
   -.277E+03 -.156E-01 0.896E+03   0.303E+03 0.473E-01 -.875E+03   -.254E+02 -.326E-01 -.206E+02   -.324E-01 0.508E-02 0.451E-01
   -.232E+03 0.133E-04 -.174E+04   0.259E+03 0.476E-06 0.176E+04   -.280E+02 0.147E-05 -.212E+02   -.111E-01 -.677E-05 0.326E-01
   0.256E+03 -.235E-01 0.413E+03   -.283E+03 0.196E-01 -.434E+03   0.280E+02 0.428E-02 0.209E+02   -.162E-02 0.111E-04 0.122E+00
   -.188E+03 -.266E-02 0.367E+03   0.209E+03 0.197E-02 -.394E+03   -.219E+02 0.807E-03 0.274E+02   -.992E-02 -.196E-04 0.940E-01
   0.160E+03 -.667E-05 -.171E+04   -.182E+03 0.862E-06 0.173E+04   0.219E+02 -.110E-04 -.279E+02   0.698E-01 0.162E-04 0.113E+00
   0.216E+03 0.517E-02 0.925E+03   -.224E+03 -.138E-01 -.895E+03   0.787E+01 0.799E-02 -.305E+02   0.229E-02 0.733E-03 0.748E-01
   0.506E+02 -.158E-03 -.120E+03   -.584E+02 0.398E-04 0.116E+03   0.793E+01 0.638E-04 0.441E+01   -.460E-02 -.351E-05 0.105E+00
   -.515E+02 -.230E-04 -.121E+04   0.598E+02 -.368E-06 0.122E+04   -.863E+01 0.130E-04 -.500E+01   0.125E-01 0.977E-05 0.786E-01
   -.251E+03 -.542E+01 0.150E+04   0.260E+03 0.636E+01 -.150E+04   -.922E+01 -.945E+00 0.841E+01   -.288E-01 0.147E-02 -.390E-01
   0.678E+02 -.101E+00 0.765E+03   -.621E+02 0.193E+00 -.758E+03   -.579E+01 -.975E-01 -.699E+01   0.435E-01 -.102E-02 0.704E-01
   -.682E+02 0.190E-04 -.197E+04   0.687E+02 -.263E-06 0.199E+04   -.492E+00 -.120E-04 -.250E+02   -.504E-01 -.102E-04 -.210E-01
   0.112E+03 -.196E-04 -.199E+04   -.116E+03 0.700E-06 0.202E+04   0.411E+01 0.939E-05 -.332E+02   -.333E-02 0.458E-05 0.774E-02
   -.127E+03 0.640E-01 0.589E+03   0.130E+03 -.824E-01 -.595E+03   -.354E+01 0.155E-01 0.552E+01   0.143E-01 0.190E-02 0.806E-01
   0.952E+02 0.673E-01 0.130E+04   -.103E+03 -.106E+00 -.131E+04   0.800E+01 0.345E-01 0.906E+01   0.347E-01 0.453E-02 0.339E-01
   0.719E+02 -.178E-04 -.145E+04   -.800E+02 -.929E-07 0.144E+04   0.844E+01 0.134E-04 0.554E+01   -.810E-01 0.677E-05 0.796E-01
   -.555E+02 -.685E-01 0.740E+02   0.633E+02 0.658E-01 -.698E+02   -.794E+01 0.751E-02 -.408E+01   0.193E-01 0.330E-04 0.103E+00
   0.121E+03 -.719E-04 -.609E+03   -.126E+03 0.133E-04 0.618E+03   0.551E+01 0.122E-03 -.930E+01   -.308E-02 -.127E-04 0.893E-01
   -.124E+03 0.379E-04 -.734E+03   0.129E+03 0.451E-05 0.726E+03   -.575E+01 -.541E-04 0.781E+01   0.604E-02 -.200E-04 0.102E+00
   0.253E+03 0.136E+02 0.187E+04   -.306E+03 -.198E+02 -.188E+04   0.530E+02 0.614E+01 0.669E+01   0.214E-01 -.106E-02 -.726E-01
   -.282E+03 0.369E+01 0.189E+04   0.306E+03 -.266E+02 -.195E+04   -.242E+02 0.230E+02 0.567E+02   -.232E-01 -.162E-01 -.829E-01
   0.442E+02 0.201E+00 0.257E+03   -.436E+02 -.190E+00 -.257E+03   -.746E+00 -.268E-02 0.836E+00   0.152E-01 -.957E-04 0.137E+00
   0.158E+01 -.155E-04 -.184E+04   -.201E+01 0.563E-06 0.184E+04   0.615E+00 0.145E-04 0.574E+00   -.551E-01 -.197E-05 0.395E-01
   -.200E+02 0.157E+00 0.125E+04   0.193E+02 -.143E+00 -.125E+04   0.698E+00 -.124E-02 -.505E+00   0.223E-02 -.875E-02 0.436E-01
   0.489E+02 -.686E+00 0.165E+04   -.472E+02 0.650E+00 -.165E+04   -.167E+01 0.346E-01 -.428E+01   -.525E-01 0.335E-03 -.300E-01
   -.179E+02 -.162E-04 -.132E+04   0.179E+02 -.438E-06 0.132E+04   0.262E+00 0.919E-05 0.727E+00   0.239E-01 0.179E-04 0.129E+00
   0.601E+01 0.139E-03 -.244E+03   -.563E+01 -.185E-03 0.244E+03   -.287E+00 0.285E-04 -.773E+00   -.573E-02 0.579E-05 0.114E+00
   -.357E+02 0.504E+01 0.178E+04   0.351E+02 -.493E+01 -.178E+04   0.565E+00 -.114E+00 -.123E+00   -.257E-01 -.162E-04 -.155E-01
   0.374E+02 0.139E-04 -.124E+04   -.372E+02 0.112E-06 0.124E+04   -.695E+00 0.149E-05 0.227E+00   -.582E-02 -.173E-04 0.860E-01
   -.314E+02 -.280E-03 -.319E+03   0.312E+02 0.325E-03 0.319E+03   0.640E+00 0.161E-03 -.384E+00   -.327E-03 0.969E-05 0.127E+00
   -.168E+02 -.444E-01 0.210E+03   0.163E+02 0.440E-01 -.210E+03   0.395E+00 0.305E-02 0.771E+00   0.747E-02 -.335E-03 0.104E+00
   -.203E+01 -.224E-04 -.182E+04   0.209E+01 0.343E-07 0.182E+04   -.321E+00 0.971E-06 -.126E+00   -.153E-01 0.257E-05 0.204E+00
   0.336E+02 -.382E-01 0.147E+04   -.333E+02 0.344E-01 -.147E+04   -.398E+00 -.510E-02 -.323E+00   0.679E-01 0.143E-02 0.559E-01
   -.865E+02 -.392E+02 0.264E+03   0.894E+02 0.436E+02 -.260E+03   -.293E+01 -.447E+01 -.443E+01   -.283E-02 -.105E-02 -.139E-01
 -----------------------------------------------------------------------------------------------
   -.209E+02 -.236E+02 -.103E+02   -.355E-12 -.128E-12 0.398E-12   0.209E+02 0.236E+02 0.789E+01   -.435E-01 -.185E-01 0.241E+01
 
 
 POSITION                                       TOTAL-FORCE (eV/Angst)
 -----------------------------------------------------------------------------------
      8.21444      0.00000     13.70923        -1.030413     -0.000811     -0.765998
      2.09355      0.00000     16.90677         1.156961      0.000124      0.482351
      2.09105      0.00356      6.70734        -0.038947     -0.014516      0.009307
      8.51089      0.00639      7.37216        -0.035884     -0.006356      0.004076
      8.70923      0.00000     17.40155        -0.837137      0.000129      0.758818
      1.59877      0.00000     13.21444         0.691050     -0.000278     -1.052241
      2.99639      1.42703      8.58719        -0.039148      0.004314      0.019044
      3.06045      1.42700     18.86323        -0.871834      0.000131     -0.586349
      7.24755      1.42700     11.75277         0.998169      0.000490      0.594006
      3.55523      1.42700     12.24755        -0.791793      0.000222      0.779721
      6.75277      1.42700     18.36845         0.688931      0.000122     -0.870158
      6.81780      1.43407      8.80338        -0.004214      0.000202      0.016283
      5.57869      0.00000     13.60615         0.121137      0.000065      0.135462
      4.72931      0.00000     17.00985        -0.315070      0.000122     -0.183475
      4.66167     -0.00864      6.61112         0.008607      0.004454     -0.005236
      8.86043      0.00542      9.83850        -0.020880     -0.005546     -0.015978
      1.70185      0.00000     20.88669         0.001309      0.000119     -1.253746
      8.60615      0.00000     20.03731         0.214848      0.000118     -1.258924
      1.67338      0.00026     10.59420         0.003204     -0.000835      0.010960
      0.45352      1.42885      8.46328        -0.009806      0.000825     -0.002690
      0.42469      1.42700     18.76015         0.290067      0.000125      0.263615
      9.88331      1.42700     11.85585        -0.094339      0.004979      0.170193
      3.45215      1.42700     14.88331         0.151524      0.000174     -0.522015
      6.85585      1.42700     15.73269        -0.187078      0.000091      0.132190
      3.34228      1.48466      4.67885        -0.059462     -0.012134      0.002400
      4.64282      1.62047      4.14324         0.036110      0.061657      0.029815
      8.60409      0.00000     11.72391        -0.057054      0.008445      0.973312
      1.70391      0.00000     18.89209         0.129604      0.000121      0.528189
      1.68809      0.00156      8.66193        -0.004628      0.003563     -0.005215
      6.35649      0.00714      7.68904        -0.012249     -0.000620      0.017962
      6.72391      0.00000     17.01191         0.345070      0.000133      0.316328
      3.58409      0.00000     13.60409         0.091675      0.000111     -0.028291
      3.35292      1.43146      6.65237        -0.039810     -0.003665     -0.023353
      3.45009      1.42700     16.87791        -0.426880      0.000121      0.204899
      6.85791      1.42700     13.73809         0.376825      0.000339      0.110186
      1.56991      1.42700     11.85791        -0.088865      0.002507      0.948187
      8.73809      1.42700     18.75809        -0.275369      0.000104      0.123526
      8.80182      1.43311      8.60202        -0.034134     -0.007358     -0.008719
      5.06393      2.26226      4.81443        -0.030099     -0.041788     -0.048444
 -----------------------------------------------------------------------------------
    total drift:                               -0.024544     -0.004795      0.016618


--------------------------------------------------------------------------------------------------------



  FREE ENERGIE OF THE ION-ELECTRON SYSTEM (eV)
  ---------------------------------------------------
  free  energy   TOTEN  =      -262.85138927 eV

  energy  without entropy=     -262.83745830  energy(sigma->0) =     -262.84674561
 
 d Force = 0.2783062E-03[ 0.136E-04, 0.543E-03]  d Energy = 0.3265386E-03-0.482E-04
 d Force =-0.1318908E+01[-0.132E+01,-0.132E+01]  d Ewald  =-0.1318908E+01-0.297E-06


--------------------------------------------------------------------------------------------------------


    POTLOK:  cpu time    0.09: real time    0.09


--------------------------------------------------------------------------------------------------------




--------------------------------------------------------------------------------------------------------


  
 reached required accuracy - stopping structural energy minimisation
     LOOP+:  cpu time   12.69: real time   14.70
    4ORBIT:  cpu time    0.00: real time    0.00

 total amount of memory used by VASP on root node    61344. kBytes
========================================================================

   base      :      30000. kBytes
   nonl-proj :      10808. kBytes
   fftplans  :       3122. kBytes
   grid      :       8166. kBytes
   one-center:        622. kBytes
   wavefun   :       8626. kBytes
 
  
  
 General timing and accounting informations for this job:
 ========================================================
  
                  Total CPU time used (sec):     1609.490
                            User time (sec):     1600.696
                          System time (sec):        8.795
                         Elapsed time (sec):     1729.571
  
                   Maximum memory used (kb):      149616.
                   Average memory used (kb):           0.
  
                          Minor page faults:        25570
                          Major page faults:            0
                 Voluntary context switches:        22038
