 vasp.5.3.3 18Dez12 (build May 12 2016 12:04:25) complex                        
  
 executed on             LinuxIFC date 2019.05.14  20:09:33
 running on   64 total cores
 distrk:  each k-point on   64 cores,    1 groups
 distr:  one band on NCORES_PER_BAND=   8 cores,    8 groups


--------------------------------------------------------------------------------------------------------


 INCAR:
 POTCAR:   PAW_PBE Mn 06Sep2000                   
 POTCAR:   PAW_PBE O_s 07Sep2000                  
 POTCAR:   PAW_PBE Mn 06Sep2000                   
  local pseudopotential read in
  partial core-charges read in
  atomic valenz-charges read in
  non local Contribution for L=           2  read in
    real space projection operators read in
  non local Contribution for L=           2  read in
    real space projection operators read in
  non local Contribution for L=           0  read in
    real space projection operators read in
  non local Contribution for L=           0  read in
    real space projection operators read in
  non local Contribution for L=           1  read in
    real space projection operators read in
  non local Contribution for L=           1  read in
    real space projection operators read in
    PAW grid and wavefunctions read in
 
   number of l-projection  operators is LMAX  =           6
   number of lm-projection operators is LMMAX =          18
 
 POTCAR:   PAW_PBE O_s 07Sep2000                  
  local pseudopotential read in
  atomic valenz-charges read in
  non local Contribution for L=           0  read in
    real space projection operators read in
  non local Contribution for L=           0  read in
    real space projection operators read in
  non local Contribution for L=           1  read in
    real space projection operators read in
  non local Contribution for L=           1  read in
    real space projection operators read in
    PAW grid and wavefunctions read in
 
   number of l-projection  operators is LMAX  =           4
   number of lm-projection operators is LMMAX =           8
 

 ----------------------------------------------------------------------------- 
|                                                                             |
|  ADVICE TO THIS USER RUNNING 'VASP/VAMP'   (HEAR YOUR MASTER'S VOICE ...):  |
|                                                                             |
|      You have a (more or less) 'large supercell' and for larger cells       |
|      it might be more efficient to use real space projection operators      |
|      So try LREAL= Auto  in the INCAR   file.                               |
|      Mind: If you want to do a very accurate calculations keep the          |
|      reciprocal projection scheme          (i.e. LREAL=.FALSE.)             |
|                                                                             |
 ----------------------------------------------------------------------------- 

 PAW_PBE Mn 06Sep2000                   :
 energy of atom  1       EATOM= -416.8732
 kinetic energy error for atom=    0.0155 (will be added to EATOM!!)
 PAW_PBE O_s 07Sep2000                  :
 energy of atom  2       EATOM= -432.2909
 kinetic energy error for atom=    0.0182 (will be added to EATOM!!)
 
 
 POSCAR: Mn12 O25  (P1) ~ CONTCAR (VASP)         
  positions in direct lattice
  velocities in cartesian coordinates
  No initial velocities read in
 exchange correlation table for  LEXCH =        8
   RHO(1)=    0.500       N(1)  =     2000
   RHO(2)=  100.500       N(2)  =     4000
 


--------------------------------------------------------------------------------------------------------


 ion  position               nearest neighbor table
   1  0.308  0.513  0.120-  28 1.81  34 1.90  22 1.94  13 1.97  11 2.66   5 2.85
   2  0.692  0.020  0.369-  37 1.61  14 1.81  27 1.82  21 1.89  33 1.97  12 2.84   6 2.85
   3  0.687  0.482  0.869-  26 1.80  15 1.80  24 1.81  36 1.87   7 2.76   9 2.83
   4  0.308  0.987  0.620-  25 1.81  35 1.90  23 1.94  16 1.97  10 2.66   8 2.85
   5  0.462  0.513  0.120-  32 1.81  30 1.90  34 1.90  18 1.94  22 1.94  17 1.97   7 2.66  11 2.66
                             1 2.85   9 2.99
   6  0.538  0.013  0.380-  31 1.81  29 1.90  21 1.92  33 1.94  17 1.94  18 1.97   8 2.66  10 2.85
                             2 2.85  12 2.88
   7  0.538  0.487  0.880-  30 1.81  32 1.90  24 1.92  20 1.94  36 1.96  19 1.97   5 2.66   3 2.76
                            11 2.85   9 2.92
   8  0.462  0.987  0.620-  29 1.81  31 1.90  35 1.90  19 1.94  23 1.94  20 1.97   6 2.66  10 2.66
                             4 2.85  12 2.98
   9  0.622  0.510  0.144-  21 1.86  14 1.86  36 1.93  18 1.95  26 1.96  30 2.10   3 2.83   7 2.92
                             5 2.99
  10  0.385  0.013  0.380-  35 1.81  25 1.90  29 1.90  13 1.94  17 1.94  22 1.97   4 2.66   8 2.66
                             6 2.85
  11  0.385  0.487  0.880-  34 1.81  28 1.90  32 1.90  16 1.94  20 1.94  23 1.97   1 2.66   5 2.66
                             7 2.85
  12  0.622  0.995  0.640-  33 1.88  15 1.88  24 1.91  27 1.93  19 1.95  31 2.09   2 2.84   6 2.88
                             8 2.98
  13  0.308  0.793  0.284-  10 1.94   1 1.97
  14  0.698  0.308  0.232-   2 1.81   9 1.86
  15  0.698  0.198  0.733-   3 1.80  12 1.88
  16  0.308  0.707  0.784-  11 1.94   4 1.97
  17  0.462  0.793  0.284-   6 1.94  10 1.94   5 1.97
  18  0.538  0.293  0.216-   5 1.94   9 1.95   6 1.97
  19  0.538  0.207  0.716-   8 1.94  12 1.95   7 1.97
  20  0.462  0.707  0.784-   7 1.94  11 1.94   8 1.97
  21  0.615  0.797  0.288-   9 1.86   2 1.89   6 1.92
  22  0.385  0.293  0.216-   1 1.94   5 1.94  10 1.97
  23  0.385  0.207  0.716-   4 1.94   8 1.94  11 1.97
  24  0.616  0.700  0.788-   3 1.81  12 1.91   7 1.92
  25  0.308  0.231  0.464-   4 1.81  10 1.90
  26  0.703  0.679  0.035-   3 1.80   9 1.96
  27  0.702  0.819  0.538-   2 1.82  12 1.93
  28  0.308  0.269  0.964-   1 1.81  11 1.90
  29  0.462  0.231  0.464-   8 1.81   6 1.90  10 1.90
  30  0.538  0.731  0.036-   7 1.81   5 1.90   9 2.10
  31  0.538  0.769  0.536-   6 1.81   8 1.90  12 2.09
  32  0.462  0.269  0.964-   5 1.81   7 1.90  11 1.90
  33  0.615  0.232  0.473-  12 1.88   6 1.94   2 1.97
  34  0.385  0.731  0.036-  11 1.81   1 1.90   5 1.90
  35  0.385  0.769  0.536-  10 1.81   4 1.90   8 1.90
  36  0.617  0.269  0.973-   3 1.87   9 1.93   7 1.96
  37  0.779  0.020  0.369-   2 1.61
 
  LATTYP: Found a simple orthorhombic cell.
 ALAT       =     4.4533000000
 B/A-ratio  =     2.0934811982
 C/A-ratio  =     4.1642376507
  
  Lattice vectors:
  
 A1 = (   0.0000000000,   4.4533000000,   0.0000000000)
 A2 = (   0.0000000000,   0.0000000000,  -9.3228998200)
 A3 = ( -18.5445995300,   0.0000000000,   0.0000000000)


Analysis of symmetry for initial positions (statically):
=====================================================================
 Subroutine PRICEL returns:
 Original cell was already a primitive cell.
 

 Routine SETGRP: Setting up the symmetry group for a 
 simple orthorhombic supercell.


 Subroutine GETGRP returns: Found  1 space group operations
 (whereof  1 operations were pure point group operations)
 out of a pool of  8 trial point group operations.


The static configuration has the point symmetry C_1 .


Analysis of symmetry for dynamics (positions and initial velocities):
=====================================================================
 Subroutine PRICEL returns:
 Original cell was already a primitive cell.
 

 Routine SETGRP: Setting up the symmetry group for a 
 simple orthorhombic supercell.


 Subroutine GETGRP returns: Found  1 space group operations
 (whereof  1 operations were pure point group operations)
 out of a pool of  8 trial point group operations.


The dynamic configuration has the point symmetry C_1 .


Analysis of constrained symmetry for selective dynamics:
=====================================================================
 Subroutine PRICEL returns:
 Original cell was already a primitive cell.
 

 Routine SETGRP: Setting up the symmetry group for a 
 simple orthorhombic supercell.


 Subroutine GETGRP returns: Found  1 space group operations
 (whereof  1 operations were pure point group operations)
 out of a pool of  8 trial point group operations.


The constrained configuration has the point symmetry C_1 .


Analysis of magnetic symmetry:
=====================================================================

 Subroutine MAGSYM returns: Found  1 space group operations
 (whereof  1 operations were pure point group operations)
 out of a pool of  1 trial space group operations
 (whereof  1 operations were pure point group operations)
 and found also     1 'primitive' translations


The magnetic configuration has the point symmetry C_1 .


 irot  :   1
 --------------------------------------------------------------------
 isymop:   1   0   0
           0   1   0
           0   0   1

 gtrans:     0.0000000     0.0000000     0.0000000

 ptrans:     0.0000000     0.0000000     0.0000000
 rotmap:
 (   1->   1)  (   2->   2)  (   3->   3)  (   4->   4)  (   5->   5) 
 (   6->   6)  (   7->   7)  (   8->   8)  (   9->   9)  (  10->  10) 
 (  11->  11)  (  12->  12)  (  13->  13)  (  14->  14)  (  15->  15) 
 (  16->  16)  (  17->  17)  (  18->  18)  (  19->  19)  (  20->  20) 
 (  21->  21)  (  22->  22)  (  23->  23)  (  24->  24)  (  25->  25) 
 (  26->  26)  (  27->  27)  (  28->  28)  (  29->  29)  (  30->  30) 
 (  31->  31)  (  32->  32)  (  33->  33)  (  34->  34)  (  35->  35) 
 (  36->  36)  (  37->  37) 
 
 
 KPOINTS: Automatic mesh                          

Automatic generation of k-mesh.
Space group operators:
 irot       det(A)        alpha          n_x          n_y          n_z        tau_x        tau_y        tau_z
    1     1.000000     0.000000     1.000000     0.000000     0.000000     0.000000     0.000000     0.000000
 
 Subroutine IBZKPT returns following result:
 ===========================================
 
 Found      2 irreducible k-points:
 
 Following reciprocal coordinates:
            Coordinates               Weight
  0.000000  0.000000  0.000000      1.000000
  0.000000  0.500000  0.000000      1.000000
 
 Following cartesian coordinates:
            Coordinates               Weight
  0.000000  0.000000  0.000000      1.000000
  0.000000  0.112276  0.000000      1.000000
 


--------------------------------------------------------------------------------------------------------




 Dimension of arrays:
   k-points           NKPTS =      2   k-points in BZ     NKDIM =      2   number of bands    NBANDS=    144
   number of dos      NEDOS =    301   number of ions     NIONS =     37
   non local maximal  LDIM  =      6   non local SUM 2l+1 LMDIM =     18
   total plane-waves  NPLWV = 103680
   max r-space proj   IRMAX =      1   max aug-charges    IRDMAX=   5150
   dimension x,y,z NGX =    90 NGY =   24 NGZ =   48
   dimension x,y,z NGXF=   180 NGYF=   48 NGZF=   96
   support grid    NGXF=   180 NGYF=   48 NGZF=   96
   ions per type =              12  25
 NGX,Y,Z   is equivalent  to a cutoff of   8.07,  8.96,  8.56 a.u.
 NGXF,Y,Z  is equivalent  to a cutoff of  16.14, 17.92, 17.12 a.u.


 I would recommend the setting:
   dimension x,y,z NGX =    87 NGY =   21 NGZ =   44
 SYSTEM =  Mn12 O25  (P1) ~ CONTCAR (VASP)         
 POSCAR =  Mn12 O25  (P1) ~ CONTCAR (VASP)         

 Startparameter for this run:
   NWRITE =      1    write-flag & timer
   PREC   = normal    normal or accurate (medium, high low for compatibility)
   ISTART =      0    job   : 0-new  1-cont  2-samecut
   ICHARG =      2    charge: 1-file 2-atom 10-const
   ISPIN  =      2    spin polarized calculation?
   LNONCOLLINEAR =      F non collinear calculations
   LSORBIT =      F    spin-orbit coupling
   INIWAV =      1    electr: 0-lowe 1-rand  2-diag
   LASPH  =      F    aspherical Exc in radial PAW
   METAGGA=      F    non-selfconsistent MetaGGA calc.

 Electronic Relaxation 1
   ENCUT  =  367.7 eV  27.02 Ry    5.20 a.u.  28.99  6.96 14.58*2*pi/ulx,y,z
   ENINI  =  367.7     initial cutoff
   ENAUG  =  500.7 eV  augmentation charge cutoff
   NELM   =     60;   NELMIN=  2; NELMDL= -5     # of ELM steps 
   EDIFF  = 0.1E-03   stopping-criterion for ELM
   LREAL  =      F    real-space projection
   NLSPLINE    = F    spline interpolate recip. space projectors
   LCOMPAT=      F    compatible to vasp.4.4
   GGA_COMPAT  = T    GGA compatible to vasp.4.4-vasp.4.6
   LMAXPAW     = -100 max onsite density
   LMAXMIX     =    4 max onsite mixed and CHGCAR
   VOSKOWN=      1    Vosko Wilk Nusair interpolation
   ROPT   =    0.00000   0.00000
 Ionic relaxation
   EDIFFG = 0.1E-02   stopping-criterion for IOM
   NSW    =    100    number of steps for IOM
   NBLOCK =      1;   KBLOCK =    100    inner block; outer block 
   IBRION =      2    ionic relax: 0-MD 1-quasi-New 2-CG
   NFREE  =      1    steps in history (QN), initial steepest desc. (CG)
   ISIF   =      2    stress and relaxation
   IWAVPR =     11    prediction:  0-non 1-charg 2-wave 3-comb
   ISYM   =      2    0-nonsym 1-usesym 2-fastsym
   LCORR  =      T    Harris-Foulkes like correction to forces

   POTIM  = 0.5000    time-step for ionic-motion
   TEIN   =    0.0    initial temperature
   TEBEG  =    0.0;   TEEND  =   0.0 temperature during run
   SMASS  =  -3.00    Nose mass-parameter (am)
   estimated Nose-frequenzy (Omega)   =  0.10E-29 period in steps =****** mass=  -0.786E-26a.u.
   SCALEE = 1.0000    scale energy and forces
   NPACO  =    256;   APACO  = 16.0  distance and # of slots for P.C.
   PSTRESS=    0.0 pullay stress

  Mass of Ions in am
   POMASS =  54.94 16.00
  Ionic Valenz
   ZVAL   =   7.00  6.00
  Atomic Wigner-Seitz radii
   RWIGS  =  -1.00 -1.00
  virtual crystal weights 
   VCA    =   1.00  1.00
   NELECT =     234.0000    total number of electrons
   NUPDOWN=      -1.0000    fix difference up-down

 DOS related values:
   EMIN   =  10.00;   EMAX   =-10.00  energy-range for DOS
   EFERMI =   0.00
   ISMEAR =     1;   SIGMA  =   0.20  broadening in eV -4-tet -1-fermi 0-gaus

 Electronic relaxation 2 (details)
   IALGO  =     38    algorithm
   LDIAG  =      T    sub-space diagonalisation (order eigenvalues)
   LSUBROT=      T    optimize rotation matrix (better conditioning)
   TURBO    =      0    0=normal 1=particle mesh
   IRESTART =      0    0=no restart 2=restart with 2 vectors
   NREBOOT  =      0    no. of reboots
   NMIN     =      0    reboot dimension
   EREF     =   0.00    reference energy to select bands
   IMIX   =      4    mixing-type and parameters
     AMIX     =   0.40;   BMIX     =  1.00
     AMIX_MAG =   1.60;   BMIX_MAG =  1.00
     AMIN     =   0.10
     WC   =   100.;   INIMIX=   1;  MIXPRE=   1;  MAXMIX= -45

 Intra band minimization:
   WEIMIN = 0.0010     energy-eigenvalue tresh-hold
   EBREAK =  0.17E-06  absolut break condition
   DEPER  =   0.30     relativ break condition  

   TIME   =   0.40     timestep for ELM

  volume/ion in A,a.u.               =      20.81       140.43
  Fermi-wavevector in a.u.,A,eV,Ry     =   1.100686  2.079994 16.483579  1.211509
  Thomas-Fermi vector in A             =   2.237101
 
 Write flags
   LWAVE  =      F    write WAVECAR
   LCHARG =      F    write CHGCAR
   LVTOT  =      F    write LOCPOT, total local potential
   LVHAR  =      F    write LOCPOT, Hartree potential only
   LELF   =      F    write electronic localiz. function (ELF)
   LORBIT =      0    0 simple, 1 ext, 2 COOP (PROOUT)


 Dipole corrections
   LMONO  =      F    monopole corrections only (constant potential shift)
   LDIPOL =      F    correct potential (dipole corrections)
   IDIPOL =      0    1-x, 2-y, 3-z, 4-all directions 
   EPSILON=  1.0000000 bulk dielectric constant

 LDA+U is selected, type is set to LDAUTYPE =  2
   angular momentum for each species LDAUL =     2   -1
   U (eV)           for each species LDAUU =   3.9  0.0
   J (eV)           for each species LDAUJ =   0.0  0.0
 Exchange correlation treatment:
   GGA     =    --    GGA type
   LEXCH   =     8    internal setting for exchange type
   VOSKOWN=      1    Vosko Wilk Nusair interpolation
   LHFCALC =     F    Hartree Fock is set to
   LHFONE  =     F    Hartree Fock one center treatment
   AEXX    =    0.0000 exact exchange contribution

 Linear response parameters
   LEPSILON=     F    determine dielectric tensor
   LRPA    =     F    only Hartree local field effects (RPA)
   LNABLA  =     F    use nabla operator in PAW spheres
   LVEL    =     F    velocity operator in full k-point grid
   LINTERFAST=   F  fast interpolation
   KINTER  =     0    interpolate to denser k-point grid
   CSHIFT  =0.1000    complex shift for real part using Kramers Kronig
   OMEGAMAX=  -1.0    maximum frequency
   DEG_THRESHOLD= 0.2000000E-02 threshold for treating states as degnerate
   RTIME   =    0.100 relaxation time in fs

 Orbital magnetization related:
   ORBITALMAG=     F  switch on orbital magnetization
   LCHIMAG   =     F  perturbation theory with respect to B field
   DQ        =  0.001000  dq finite difference perturbation B field



--------------------------------------------------------------------------------------------------------


 conjugate gradient relaxation of ions
   using selective dynamics as specified on POSCAR
 charge density and potential will be updated during run
 spin polarized calculation
 Variant of blocked Davidson
 Davidson routine will perform the subspace rotation
 perform sub-space diagonalisation
    after iterative eigenvector-optimisation
 modified Broyden-mixing scheme, WC =      100.0
 initial mixing is a Kerker type mixing with AMIX =  0.4000 and BMIX =      1.0000
 Hartree-type preconditioning will be used
 using additional bands           27
 reciprocal scheme for non local part
 use partial core corrections
 calculate Harris-corrections to forces 
   (improved forces if not selfconsistent)
 use gradient corrections 
 use of overlap-Matrix (Vanderbilt PP)
 Methfessel and Paxton  Order N= 1 SIGMA  =   0.20


--------------------------------------------------------------------------------------------------------


  energy-cutoff  :      367.69
  volume of cell :      769.93
      direct lattice vectors                 reciprocal lattice vectors
    18.544599530  0.000000000  0.000000000     0.053924055  0.000000000  0.000000000
     0.000000000  4.453300000  0.000000000     0.000000000  0.224552579  0.000000000
     0.000000000  0.000000000  9.322899820     0.000000000  0.000000000  0.107262764

  length of vectors
    18.544599530  4.453300000  9.322899820     0.053924055  0.224552579  0.107262764


 
 k-points in units of 2pi/SCALE and weight: Automatic mesh                          
   0.00000000  0.00000000  0.00000000       0.500
   0.00000000  0.11227629  0.00000000       0.500
 
 k-points in reciprocal lattice and weights: Automatic mesh                          
   0.00000000  0.00000000  0.00000000       0.500
   0.00000000  0.50000000  0.00000000       0.500
 
 position of ions in fractional coordinates (direct lattice) 
   0.30801690  0.51300001  0.12030000
   0.69213474  0.01959116  0.36879477
   0.68708128  0.48171398  0.86941564
   0.30801690  0.98699999  0.62029999
   0.46160337  0.51300001  0.12030000
   0.53839660  0.01300000  0.37970001
   0.53839660  0.48699999  0.87970001
   0.46160337  0.98699999  0.62029999
   0.62222946  0.50957328  0.14420378
   0.38481012  0.01300000  0.37970001
   0.38481012  0.48699999  0.87970001
   0.62224978  0.99492723  0.63980556
   0.30801690  0.79339999  0.28420001
   0.69848067  0.30846575  0.23222406
   0.69813371  0.19844252  0.73275548
   0.30801690  0.70660001  0.78420001
   0.46160337  0.79339999  0.28420001
   0.53839660  0.29339999  0.21580000
   0.53839660  0.20660000  0.71579999
   0.46160337  0.70660001  0.78420001
   0.61513299  0.79681462  0.28841367
   0.38481012  0.29339999  0.21580000
   0.38481012  0.20660000  0.71579999
   0.61555028  0.70021868  0.78797722
   0.30801690  0.23109999  0.46439999
   0.70254231  0.67870349  0.03478529
   0.70229155  0.81908494  0.53751391
   0.30801690  0.26890001  0.96439999
   0.46160337  0.23109999  0.46439999
   0.53839660  0.73110002  0.03560000
   0.53839660  0.76889998  0.53560001
   0.46160337  0.26890001  0.96439999
   0.61547315  0.23198310  0.47330341
   0.38481012  0.73110002  0.03560000
   0.38481012  0.76889998  0.53560001
   0.61712593  0.26917893  0.97261941
   0.77920920  0.01959116  0.36879477
 
 position of ions in cartesian coordinates  (Angst):
   5.71205006  2.28454294  1.12154485
  12.83536157  0.08724531  3.43823669
  12.74164718  2.14521687  8.10547491
   5.71205006  4.39540706  5.78299467
   8.56024964  2.28454294  1.12154485
   9.98434934  0.05789290  3.53990515
   9.98434934  2.16875706  8.20135506
   8.56024964  4.39540706  5.78299467
  11.53899615  2.26928269  1.34439739
   7.13614957  0.05789290  3.53990515
   7.13614957  2.16875706  8.20135506
  11.53937298  4.43070943  5.96484314
   5.71205006  3.53324818  2.64956822
  12.95304430  1.37369052  2.16500165
  12.94661007  0.88372407  6.83140593
   5.71205006  3.14670182  7.31101813
   8.56024964  3.53324818  2.64956822
   9.98434934  1.30659818  2.01188178
   9.98434934  0.92005178  6.67333160
   8.56024964  3.14670182  7.31101813
  11.40739496  3.54845455  2.68885175
   7.13614957  1.30659818  2.01188178
   7.13614957  0.92005178  6.67333160
  11.41513343  3.11828385  7.34623268
   5.71205006  1.02915759  4.32955458
  13.02836579  3.02247025  0.32429977
  13.02371555  3.64763096  5.01118833
   5.71205006  1.19749241  8.99100449
   8.56024964  1.02915759  4.32955458
   9.98434934  3.25580772  0.33189523
   9.98434934  3.42414228  4.99334524
   8.56024964  1.19749241  8.99100449
  11.41370309  1.03309034  4.41256028
   7.13614957  3.25580772  0.33189523
   7.13614957  3.42414228  4.99334524
  11.44435323  1.19873453  9.06763332
  14.45012256  0.08724531  3.43823669
 


--------------------------------------------------------------------------------------------------------


 k-point  1 :   0.0000 0.0000 0.0000  plane waves:   12281
 k-point  2 :   0.0000 0.5000 0.0000  plane waves:   12366

 maximum and minimum number of plane-waves per node :      1570     1484

 maximum number of plane-waves:     12366
 maximum index in each direction: 
   IXMAX=   28   IYMAX=    6   IZMAX=   14
   IXMIN=  -28   IYMIN=   -7   IZMIN=  -14

 WARNING: aliasing errors must be expected set NGX to 114 to avoid them
 WARNING: aliasing errors must be expected set NGY to  28 to avoid them
 WARNING: aliasing errors must be expected set NGZ to  58 to avoid them
 aliasing errors are usually negligible using standard VASP settings
 and one can safely disregard these warnings

 parallel 3D FFT for wavefunctions:
    minimum data exchange during FFTs selected (reduces bandwidth)
 parallel 3D FFT for charge:
    minimum data exchange during FFTs selected (reduces bandwidth)


 total amount of memory used by VASP on root node    36969. kBytes
========================================================================

   base      :      30000. kBytes
   nonl-proj :       1812. kBytes
   fftplans  :        902. kBytes
   grid      :       2239. kBytes
   one-center:        155. kBytes
   wavefun   :       1861. kBytes
 
 Broyden mixing: mesh for mixing (old mesh)
   NGX = 57   NGY = 13   NGZ = 29
  (NGX  =180   NGY  = 48   NGZ  = 96)
  gives a total of  21489 points

 initial charge density was supplied:
 charge density of overlapping atoms calculated
 number of electron     234.0000000 magnetization       0.0000000
 keeping initial charge density in first step


--------------------------------------------------------------------------------------------------------


 Maximum index for augmentation-charges          324 (set IRDMAX)


--------------------------------------------------------------------------------------------------------


 First call to EWALD:  gamma=   0.193
 Maximum number of real-space cells 2x 5x 3
 Maximum number of reciprocal cells 5x 2x 3

 FEWALD executed in parallel
    FEWALD:  cpu time    0.00: real time    0.00


----------------------------------------- Iteration    1(   1)  ---------------------------------------


    POTLOK:  cpu time    0.04: real time    0.04
    SETDIJ:  cpu time    0.01: real time    0.01
     EDDAV:  cpu time    0.69: real time    0.69
       DOS:  cpu time    0.00: real time    0.00
    --------------------------------------------
      LOOP:  cpu time    0.73: real time    0.79

 eigenvalue-minimisations  :  1176
 total energy-change (2. order) : 0.2819306E+04  (-0.8191983E+04)
 number of electron     234.0000000 magnetization       0.0000000
 augmentation part      234.0000000 magnetization       0.0000000

 Free energy of the ion-electron system (eV)
  ---------------------------------------------------
  alpha Z        PSCENC =       425.40536297
  Ewald energy   TEWEN  =     37666.27953900
  -1/2 Hartree   DENC   =    -52706.01247761
  -exchange  EXHF       =         0.00000000
  -V(xc)+E(xc)   XCENC  =       554.84556799
  PAW double counting   =     11199.31591812   -11039.47730748
  entropy T*S    EENTRO =        -0.01439611
  eigenvalues    EBANDS =       909.85184978
  atomic energy  EATOM  =     15809.11153208
  ---------------------------------------------------
  free energy    TOTEN  =      2819.30558873 eV

  energy without entropy =     2819.31998484  energy(sigma->0) =     2819.31038743


--------------------------------------------------------------------------------------------------------




----------------------------------------- Iteration    1(   2)  ---------------------------------------


     EDDAV:  cpu time    0.68: real time    0.68
       DOS:  cpu time    0.00: real time    0.00
    --------------------------------------------
      LOOP:  cpu time    0.68: real time    0.76

 eigenvalue-minimisations  :  1176
 total energy-change (2. order) :-0.2475473E+04  (-0.2382484E+04)
 number of electron     234.0000000 magnetization       0.0000000
 augmentation part      234.0000000 magnetization       0.0000000

 Free energy of the ion-electron system (eV)
  ---------------------------------------------------
  alpha Z        PSCENC =       425.40536297
  Ewald energy   TEWEN  =     37666.27953900
  -1/2 Hartree   DENC   =    -52706.01247761
  -exchange  EXHF       =         0.00000000
  -V(xc)+E(xc)   XCENC  =       554.84556799
  PAW double counting   =     11199.31591812   -11039.47730748
  entropy T*S    EENTRO =         0.00379422
  eigenvalues    EBANDS =     -1565.63913945
  atomic energy  EATOM  =     15809.11153208
  ---------------------------------------------------
  free energy    TOTEN  =       343.83278982 eV

  energy without entropy =      343.82899561  energy(sigma->0) =      343.83152508


--------------------------------------------------------------------------------------------------------




----------------------------------------- Iteration    1(   3)  ---------------------------------------


     EDDAV:  cpu time    0.90: real time    0.90
       DOS:  cpu time    0.00: real time    0.00
    --------------------------------------------
      LOOP:  cpu time    0.90: real time    1.15

 eigenvalue-minimisations  :  1696
 total energy-change (2. order) :-0.6246546E+03  (-0.6006627E+03)
 number of electron     234.0000000 magnetization       0.0000000
 augmentation part      234.0000000 magnetization       0.0000000

 Free energy of the ion-electron system (eV)
  ---------------------------------------------------
  alpha Z        PSCENC =       425.40536297
  Ewald energy   TEWEN  =     37666.27953900
  -1/2 Hartree   DENC   =    -52706.01247761
  -exchange  EXHF       =         0.00000000
  -V(xc)+E(xc)   XCENC  =       554.84556799
  PAW double counting   =     11199.31591812   -11039.47730748
  entropy T*S    EENTRO =         0.03481058
  eigenvalues    EBANDS =     -2190.32474428
  atomic energy  EATOM  =     15809.11153208
  ---------------------------------------------------
  free energy    TOTEN  =      -280.82179864 eV

  energy without entropy =     -280.85660922  energy(sigma->0) =     -280.83340217


--------------------------------------------------------------------------------------------------------




----------------------------------------- Iteration    1(   4)  ---------------------------------------


     EDDAV:  cpu time    0.94: real time    0.94
       DOS:  cpu time    0.00: real time    0.00
    --------------------------------------------
      LOOP:  cpu time    0.94: real time    1.03

 eigenvalue-minimisations  :  1808
 total energy-change (2. order) :-0.6082070E+02  (-0.5954457E+02)
 number of electron     234.0000000 magnetization       0.0000000
 augmentation part      234.0000000 magnetization       0.0000000

 Free energy of the ion-electron system (eV)
  ---------------------------------------------------
  alpha Z        PSCENC =       425.40536297
  Ewald energy   TEWEN  =     37666.27953900
  -1/2 Hartree   DENC   =    -52706.01247761
  -exchange  EXHF       =         0.00000000
  -V(xc)+E(xc)   XCENC  =       554.84556799
  PAW double counting   =     11199.31591812   -11039.47730748
  entropy T*S    EENTRO =         0.01163689
  eigenvalues    EBANDS =     -2251.12227307
  atomic energy  EATOM  =     15809.11153208
  ---------------------------------------------------
  free energy    TOTEN  =      -341.64250112 eV

  energy without entropy =     -341.65413801  energy(sigma->0) =     -341.64638009


--------------------------------------------------------------------------------------------------------




----------------------------------------- Iteration    1(   5)  ---------------------------------------


     EDDAV:  cpu time    0.93: real time    0.93
       DOS:  cpu time    0.00: real time    0.00
    CHARGE:  cpu time    0.03: real time    0.03
    MIXING:  cpu time    0.00: real time    0.00
    --------------------------------------------
      LOOP:  cpu time    0.96: real time    1.05

 eigenvalue-minimisations  :  1784
 total energy-change (2. order) :-0.1692960E+01  (-0.1674679E+01)
 number of electron     234.0000089 magnetization      -0.2920390
 augmentation part       65.4564616 magnetization       0.3740363

 Broyden mixing:
  rms(total) = 0.69448E+01    rms(broyden)= 0.69375E+01
  rms(prec ) = 0.77875E+01
  weight for this iteration     100.00

 Free energy of the ion-electron system (eV)
  ---------------------------------------------------
  alpha Z        PSCENC =       425.40536297
  Ewald energy   TEWEN  =     37666.27953900
  -1/2 Hartree   DENC   =    -52706.01247761
  -exchange  EXHF       =         0.00000000
  -V(xc)+E(xc)   XCENC  =       554.84556799
  PAW double counting   =     11199.31591812   -11039.47730748
  entropy T*S    EENTRO =         0.01517935
  eigenvalues    EBANDS =     -2252.81877564
  atomic energy  EATOM  =     15809.11153208
  ---------------------------------------------------
  free energy    TOTEN  =      -343.33546122 eV

  energy without entropy =     -343.35064058  energy(sigma->0) =     -343.34052101


--------------------------------------------------------------------------------------------------------




----------------------------------------- Iteration    1(   6)  ---------------------------------------


    POTLOK:  cpu time    0.03: real time    0.03
    SETDIJ:  cpu time    0.00: real time    0.01
     EDDAV:  cpu time    1.04: real time    1.04
       DOS:  cpu time    0.00: real time    0.00
    CHARGE:  cpu time    0.03: real time    0.03
    MIXING:  cpu time    0.00: real time    0.00
    --------------------------------------------
      LOOP:  cpu time    1.11: real time    1.19

 eigenvalue-minimisations  :  2016
 total energy-change (2. order) : 0.3829933E+01  (-0.1432815E+03)
 number of electron     234.0000104 magnetization      -0.5327164
 augmentation part       84.1771713 magnetization      -0.7941821

 Broyden mixing:
  rms(total) = 0.11906E+02    rms(broyden)= 0.11903E+02
  rms(prec ) = 0.13422E+02
  weight for this iteration     100.00

 eigenvalues of (default mixing * dielectric matrix)
  average eigenvalue GAMMA=   0.3407
  0.3407

 Free energy of the ion-electron system (eV)
  ---------------------------------------------------
  alpha Z        PSCENC =       425.40536297
  Ewald energy   TEWEN  =     37666.27953900
  -1/2 Hartree   DENC   =    -52838.37911607
  -exchange  EXHF       =         0.00000000
  -V(xc)+E(xc)   XCENC  =       583.13920537
  PAW double counting   =     12130.87353270   -11960.07264538
  entropy T*S    EENTRO =        -0.02877105
  eigenvalues    EBANDS =     -2155.83416791
  atomic energy  EATOM  =     15809.11153208
  ---------------------------------------------------
  free energy    TOTEN  =      -339.50552829 eV

  energy without entropy =     -339.47675724  energy(sigma->0) =     -339.49593794


--------------------------------------------------------------------------------------------------------




----------------------------------------- Iteration    1(   7)  ---------------------------------------


    POTLOK:  cpu time    0.03: real time    0.03
    SETDIJ:  cpu time    0.01: real time    0.01
     EDDAV:  cpu time    1.12: real time    1.12
       DOS:  cpu time    0.00: real time    0.00
    CHARGE:  cpu time    0.03: real time    0.03
    MIXING:  cpu time    0.00: real time    0.00
    --------------------------------------------
      LOOP:  cpu time    1.19: real time    1.27

 eigenvalue-minimisations  :  2208
 total energy-change (2. order) : 0.8992719E+02  (-0.1138529E+03)
 number of electron     234.0000081 magnetization      -0.7146145
 augmentation part       65.9227623 magnetization      -0.8277357

 Broyden mixing:
  rms(total) = 0.33314E+01    rms(broyden)= 0.33225E+01
  rms(prec ) = 0.37209E+01
  weight for this iteration     100.00

 eigenvalues of (default mixing * dielectric matrix)
  average eigenvalue GAMMA=   0.4878
  0.6972  0.2784

 Free energy of the ion-electron system (eV)
  ---------------------------------------------------
  alpha Z        PSCENC =       425.40536297
  Ewald energy   TEWEN  =     37666.27953900
  -1/2 Hartree   DENC   =    -52933.21611155
  -exchange  EXHF       =         0.00000000
  -V(xc)+E(xc)   XCENC  =       563.31203123
  PAW double counting   =     12192.46820587   -12064.90579337
  entropy T*S    EENTRO =         0.02830643
  eigenvalues    EBANDS =     -1908.06141056
  atomic energy  EATOM  =     15809.11153208
  ---------------------------------------------------
  free energy    TOTEN  =      -249.57833790 eV

  energy without entropy =     -249.60664433  energy(sigma->0) =     -249.58777337


--------------------------------------------------------------------------------------------------------




----------------------------------------- Iteration    1(   8)  ---------------------------------------


    POTLOK:  cpu time    0.03: real time    0.03
    SETDIJ:  cpu time    0.01: real time    0.01
     EDDAV:  cpu time    0.95: real time    0.95
       DOS:  cpu time    0.00: real time    0.00
    CHARGE:  cpu time    0.03: real time    0.03
    MIXING:  cpu time    0.00: real time    0.00
    --------------------------------------------
      LOOP:  cpu time    1.02: real time    1.11

 eigenvalue-minimisations  :  1824
 total energy-change (2. order) : 0.1562325E+01  (-0.1035073E+02)
 number of electron     234.0000086 magnetization      -0.8855464
 augmentation part       66.3487430 magnetization      -0.5345032

 Broyden mixing:
  rms(total) = 0.25336E+01    rms(broyden)= 0.25332E+01
  rms(prec ) = 0.28470E+01
  weight for this iteration     100.00

 eigenvalues of (default mixing * dielectric matrix)
  average eigenvalue GAMMA=   0.5530
  0.6636  0.6636  0.3316

 Free energy of the ion-electron system (eV)
  ---------------------------------------------------
  alpha Z        PSCENC =       425.40536297
  Ewald energy   TEWEN  =     37666.27953900
  -1/2 Hartree   DENC   =    -52906.33830859
  -exchange  EXHF       =         0.00000000
  -V(xc)+E(xc)   XCENC  =       565.47063945
  PAW double counting   =     12344.35113405   -12217.97851695
  entropy T*S    EENTRO =         0.04455801
  eigenvalues    EBANDS =     -1934.36195283
  atomic energy  EATOM  =     15809.11153208
  ---------------------------------------------------
  free energy    TOTEN  =      -248.01601280 eV

  energy without entropy =     -248.06057082  energy(sigma->0) =     -248.03086547


--------------------------------------------------------------------------------------------------------




----------------------------------------- Iteration    1(   9)  ---------------------------------------


    POTLOK:  cpu time    0.03: real time    0.03
    SETDIJ:  cpu time    0.01: real time    0.01
     EDDAV:  cpu time    1.09: real time    1.09
       DOS:  cpu time    0.00: real time    0.00
    CHARGE:  cpu time    0.03: real time    0.03
    MIXING:  cpu time    0.00: real time    0.00
    --------------------------------------------
      LOOP:  cpu time    1.16: real time    1.25

 eigenvalue-minimisations  :  2104
 total energy-change (2. order) : 0.4230053E+01  (-0.1271677E+01)
 number of electron     234.0000084 magnetization      -1.0486043
 augmentation part       66.9181374 magnetization      -0.6450297

 Broyden mixing:
  rms(total) = 0.16983E+01    rms(broyden)= 0.16980E+01
  rms(prec ) = 0.18936E+01
  weight for this iteration     100.00

 eigenvalues of (default mixing * dielectric matrix)
  average eigenvalue GAMMA=   0.6288
  0.8572  0.8572  0.3062  0.4946

 Free energy of the ion-electron system (eV)
  ---------------------------------------------------
  alpha Z        PSCENC =       425.40536297
  Ewald energy   TEWEN  =     37666.27953900
  -1/2 Hartree   DENC   =    -52910.55240209
  -exchange  EXHF       =         0.00000000
  -V(xc)+E(xc)   XCENC  =       568.42868313
  PAW double counting   =     12515.45726471   -12390.11349418
  entropy T*S    EENTRO =         0.03790107
  eigenvalues    EBANDS =     -1927.84034637
  atomic energy  EATOM  =     15809.11153208
  ---------------------------------------------------
  free energy    TOTEN  =      -243.78595967 eV

  energy without entropy =     -243.82386074  energy(sigma->0) =     -243.79859336


--------------------------------------------------------------------------------------------------------




----------------------------------------- Iteration    1(  10)  ---------------------------------------


    POTLOK:  cpu time    0.03: real time    0.04
    SETDIJ:  cpu time    0.01: real time    0.01
     EDDAV:  cpu time    1.11: real time    1.11
       DOS:  cpu time    0.00: real time    0.00
    CHARGE:  cpu time    0.03: real time    0.03
    MIXING:  cpu time    0.00: real time    0.00
    --------------------------------------------
      LOOP:  cpu time    1.18: real time    1.37

 eigenvalue-minimisations  :  2168
 total energy-change (2. order) : 0.9735047E+00  (-0.6414655E+00)
 number of electron     234.0000087 magnetization      -1.0823741
 augmentation part       67.7077560 magnetization      -0.3942784

 Broyden mixing:
  rms(total) = 0.11335E+01    rms(broyden)= 0.11321E+01
  rms(prec ) = 0.12380E+01
  weight for this iteration     100.00

 eigenvalues of (default mixing * dielectric matrix)
  average eigenvalue GAMMA=   0.5590
  0.8908  0.8908  0.5166  0.2999  0.1968

 Free energy of the ion-electron system (eV)
  ---------------------------------------------------
  alpha Z        PSCENC =       425.40536297
  Ewald energy   TEWEN  =     37666.27953900
  -1/2 Hartree   DENC   =    -52904.37561621
  -exchange  EXHF       =         0.00000000
  -V(xc)+E(xc)   XCENC  =       570.94886119
  PAW double counting   =     12642.44121665   -12515.90963616
  entropy T*S    EENTRO =         0.01275700
  eigenvalues    EBANDS =     -1936.72647150
  atomic energy  EATOM  =     15809.11153208
  ---------------------------------------------------
  free energy    TOTEN  =      -242.81245498 eV

  energy without entropy =     -242.82521198  energy(sigma->0) =     -242.81670731


--------------------------------------------------------------------------------------------------------




----------------------------------------- Iteration    1(  11)  ---------------------------------------


    POTLOK:  cpu time    0.03: real time    0.03
    SETDIJ:  cpu time    0.01: real time    0.01
     EDDAV:  cpu time    1.01: real time    1.01
       DOS:  cpu time    0.00: real time    0.00
    CHARGE:  cpu time    0.03: real time    0.03
    MIXING:  cpu time    0.00: real time    0.00
    --------------------------------------------
      LOOP:  cpu time    1.08: real time    1.16

 eigenvalue-minimisations  :  1904
 total energy-change (2. order) :-0.4550339E+00  (-0.1495065E+00)
 number of electron     234.0000087 magnetization      -1.2541804
 augmentation part       67.6683089 magnetization      -0.5610323

 Broyden mixing:
  rms(total) = 0.98553E+00    rms(broyden)= 0.98539E+00
  rms(prec ) = 0.10788E+01
  weight for this iteration     100.00

 eigenvalues of (default mixing * dielectric matrix)
  average eigenvalue GAMMA=   0.7120
  1.2813  1.2813  0.5579  0.5579  0.3286  0.2648

 Free energy of the ion-electron system (eV)
  ---------------------------------------------------
  alpha Z        PSCENC =       425.40536297
  Ewald energy   TEWEN  =     37666.27953900
  -1/2 Hartree   DENC   =    -52898.47044271
  -exchange  EXHF       =         0.00000000
  -V(xc)+E(xc)   XCENC  =       571.23035801
  PAW double counting   =     12651.63056929   -12524.29906777
  entropy T*S    EENTRO =         0.03233985
  eigenvalues    EBANDS =     -1944.18767965
  atomic energy  EATOM  =     15809.11153208
  ---------------------------------------------------
  free energy    TOTEN  =      -243.26748892 eV

  energy without entropy =     -243.29982877  energy(sigma->0) =     -243.27826887


--------------------------------------------------------------------------------------------------------




----------------------------------------- Iteration    1(  12)  ---------------------------------------


    POTLOK:  cpu time    0.03: real time    0.03
    SETDIJ:  cpu time    0.01: real time    0.01
     EDDAV:  cpu time    1.10: real time    1.10
       DOS:  cpu time    0.00: real time    0.00
    CHARGE:  cpu time    0.03: real time    0.03
    MIXING:  cpu time    0.00: real time    0.00
    --------------------------------------------
      LOOP:  cpu time    1.17: real time    1.27

 eigenvalue-minimisations  :  2168
 total energy-change (2. order) :-0.6248050E+00  (-0.3034122E+00)
 number of electron     234.0000084 magnetization      -1.3382009
 augmentation part       68.1102586 magnetization      -0.4324759

 Broyden mixing:
  rms(total) = 0.75704E+00    rms(broyden)= 0.75558E+00
  rms(prec ) = 0.81948E+00
  weight for this iteration     100.00

 eigenvalues of (default mixing * dielectric matrix)
  average eigenvalue GAMMA=   0.7249
  1.4820  1.4820  0.5812  0.5812  0.4120  0.3046  0.2313

 Free energy of the ion-electron system (eV)
  ---------------------------------------------------
  alpha Z        PSCENC =       425.40536297
  Ewald energy   TEWEN  =     37666.27953900
  -1/2 Hartree   DENC   =    -52887.03274063
  -exchange  EXHF       =         0.00000000
  -V(xc)+E(xc)   XCENC  =       573.37767877
  PAW double counting   =     12740.96294141   -12612.32005885
  entropy T*S    EENTRO =        -0.02341984
  eigenvalues    EBANDS =     -1959.65312880
  atomic energy  EATOM  =     15809.11153208
  ---------------------------------------------------
  free energy    TOTEN  =      -243.89229389 eV

  energy without entropy =     -243.86887406  energy(sigma->0) =     -243.88448728


--------------------------------------------------------------------------------------------------------




----------------------------------------- Iteration    1(  13)  ---------------------------------------


    POTLOK:  cpu time    0.03: real time    0.03
    SETDIJ:  cpu time    0.01: real time    0.01
     EDDAV:  cpu time    1.06: real time    1.06
       DOS:  cpu time    0.00: real time    0.00
    CHARGE:  cpu time    0.03: real time    0.03
    MIXING:  cpu time    0.00: real time    0.00
    --------------------------------------------
      LOOP:  cpu time    1.13: real time    1.23

 eigenvalue-minimisations  :  2080
 total energy-change (2. order) :-0.2496217E+00  (-0.1459918E+00)
 number of electron     234.0000084 magnetization      -1.3841721
 augmentation part       68.3881467 magnetization      -0.3339461

 Broyden mixing:
  rms(total) = 0.56396E+00    rms(broyden)= 0.56316E+00
  rms(prec ) = 0.59943E+00
  weight for this iteration     100.00

 eigenvalues of (default mixing * dielectric matrix)
  average eigenvalue GAMMA=   0.6864
  1.5647  1.5647  0.5347  0.5347  0.3366  0.3366  0.3547  0.2645

 Free energy of the ion-electron system (eV)
  ---------------------------------------------------
  alpha Z        PSCENC =       425.40536297
  Ewald energy   TEWEN  =     37666.27953900
  -1/2 Hartree   DENC   =    -52886.31166160
  -exchange  EXHF       =         0.00000000
  -V(xc)+E(xc)   XCENC  =       574.60361461
  PAW double counting   =     12787.55480241   -12659.10496432
  entropy T*S    EENTRO =        -0.03570937
  eigenvalues    EBANDS =     -1961.64443135
  atomic energy  EATOM  =     15809.11153208
  ---------------------------------------------------
  free energy    TOTEN  =      -244.14191556 eV

  energy without entropy =     -244.10620619  energy(sigma->0) =     -244.13001243


--------------------------------------------------------------------------------------------------------




----------------------------------------- Iteration    1(  14)  ---------------------------------------


    POTLOK:  cpu time    0.03: real time    0.03
    SETDIJ:  cpu time    0.01: real time    0.01
     EDDAV:  cpu time    1.02: real time    1.02
       DOS:  cpu time    0.00: real time    0.00
    CHARGE:  cpu time    0.03: real time    0.03
    MIXING:  cpu time    0.00: real time    0.00
    --------------------------------------------
      LOOP:  cpu time    1.09: real time    1.18

 eigenvalue-minimisations  :  1968
 total energy-change (2. order) :-0.3124772E+00  (-0.6165526E-01)
 number of electron     234.0000084 magnetization      -1.4650231
 augmentation part       68.4008081 magnetization      -0.3566426

 Broyden mixing:
  rms(total) = 0.50063E+00    rms(broyden)= 0.50028E+00
  rms(prec ) = 0.53502E+00
  weight for this iteration     100.00

 eigenvalues of (default mixing * dielectric matrix)
  average eigenvalue GAMMA=   0.7747
  1.7240  1.7240  0.8260  0.8260  0.5250  0.5250  0.3237  0.2687  0.2293

 Free energy of the ion-electron system (eV)
  ---------------------------------------------------
  alpha Z        PSCENC =       425.40536297
  Ewald energy   TEWEN  =     37666.27953900
  -1/2 Hartree   DENC   =    -52889.59782301
  -exchange  EXHF       =         0.00000000
  -V(xc)+E(xc)   XCENC  =       575.30155778
  PAW double counting   =     12808.58451610   -12680.03072991
  entropy T*S    EENTRO =        -0.03021836
  eigenvalues    EBANDS =     -1959.47812938
  atomic energy  EATOM  =     15809.11153208
  ---------------------------------------------------
  free energy    TOTEN  =      -244.45439272 eV

  energy without entropy =     -244.42417437  energy(sigma->0) =     -244.44431994


--------------------------------------------------------------------------------------------------------




----------------------------------------- Iteration    1(  15)  ---------------------------------------


    POTLOK:  cpu time    0.04: real time    0.04
    SETDIJ:  cpu time    0.01: real time    0.01
     EDDAV:  cpu time    1.08: real time    1.08
       DOS:  cpu time    0.00: real time    0.00
    CHARGE:  cpu time    0.03: real time    0.03
    MIXING:  cpu time    0.00: real time    0.00
    --------------------------------------------
      LOOP:  cpu time    1.15: real time    1.29

 eigenvalue-minimisations  :  2104
 total energy-change (2. order) :-0.2064047E+00  (-0.6027212E-01)
 number of electron     234.0000083 magnetization      -1.5566484
 augmentation part       68.5386307 magnetization      -0.3239534

 Broyden mixing:
  rms(total) = 0.40264E+00    rms(broyden)= 0.40208E+00
  rms(prec ) = 0.43027E+00
  weight for this iteration     100.00

 eigenvalues of (default mixing * dielectric matrix)
  average eigenvalue GAMMA=   0.8550
  2.0760  2.0760  1.0287  1.0287  0.5672  0.5672  0.4063  0.3146  0.2537  0.2317

 Free energy of the ion-electron system (eV)
  ---------------------------------------------------
  alpha Z        PSCENC =       425.40536297
  Ewald energy   TEWEN  =     37666.27953900
  -1/2 Hartree   DENC   =    -52899.02956559
  -exchange  EXHF       =         0.00000000
  -V(xc)+E(xc)   XCENC  =       576.65959886
  PAW double counting   =     12851.89940148   -12723.92952644
  entropy T*S    EENTRO =        -0.00772041
  eigenvalues    EBANDS =     -1951.04941940
  atomic energy  EATOM  =     15809.11153208
  ---------------------------------------------------
  free energy    TOTEN  =      -244.66079744 eV

  energy without entropy =     -244.65307703  energy(sigma->0) =     -244.65822397


--------------------------------------------------------------------------------------------------------




----------------------------------------- Iteration    1(  16)  ---------------------------------------


    POTLOK:  cpu time    0.03: real time    0.03
    SETDIJ:  cpu time    0.01: real time    0.01
     EDDAV:  cpu time    1.00: real time    1.01
       DOS:  cpu time    0.00: real time    0.00
    CHARGE:  cpu time    0.03: real time    0.03
    MIXING:  cpu time    0.00: real time    0.00
    --------------------------------------------
      LOOP:  cpu time    1.08: real time    1.18

 eigenvalue-minimisations  :  1944
 total energy-change (2. order) :-0.2228614E+00  (-0.6618416E-01)
 number of electron     234.0000084 magnetization      -1.6462989
 augmentation part       68.5821007 magnetization      -0.3345544

 Broyden mixing:
  rms(total) = 0.28351E+00    rms(broyden)= 0.28298E+00
  rms(prec ) = 0.30531E+00
  weight for this iteration     100.00

 eigenvalues of (default mixing * dielectric matrix)
  average eigenvalue GAMMA=   0.8560
  2.1663  2.1663  1.0525  1.0525  0.6568  0.6568  0.5103  0.3242  0.3242  0.2735
  0.2323

 Free energy of the ion-electron system (eV)
  ---------------------------------------------------
  alpha Z        PSCENC =       425.40536297
  Ewald energy   TEWEN  =     37666.27953900
  -1/2 Hartree   DENC   =    -52911.74883616
  -exchange  EXHF       =         0.00000000
  -V(xc)+E(xc)   XCENC  =       577.88259824
  PAW double counting   =     12890.71390626   -12763.53878448
  entropy T*S    EENTRO =        -0.00753318
  eigenvalues    EBANDS =     -1938.98144353
  atomic energy  EATOM  =     15809.11153208
  ---------------------------------------------------
  free energy    TOTEN  =      -244.88365880 eV

  energy without entropy =     -244.87612562  energy(sigma->0) =     -244.88114774


--------------------------------------------------------------------------------------------------------




----------------------------------------- Iteration    1(  17)  ---------------------------------------


    POTLOK:  cpu time    0.03: real time    0.03
    SETDIJ:  cpu time    0.01: real time    0.01
     EDDAV:  cpu time    1.01: real time    1.02
       DOS:  cpu time    0.00: real time    0.00
    CHARGE:  cpu time    0.03: real time    0.03
    MIXING:  cpu time    0.00: real time    0.00
    --------------------------------------------
      LOOP:  cpu time    1.09: real time    1.28

 eigenvalue-minimisations  :  1968
 total energy-change (2. order) :-0.1393498E+00  (-0.2907860E-01)
 number of electron     234.0000084 magnetization      -1.7217848
 augmentation part       68.6930071 magnetization      -0.3327765

 Broyden mixing:
  rms(total) = 0.21278E+00    rms(broyden)= 0.21238E+00
  rms(prec ) = 0.24108E+00
  weight for this iteration     100.00

 eigenvalues of (default mixing * dielectric matrix)
  average eigenvalue GAMMA=   0.8718
  2.0511  2.0511  1.2964  1.2964  0.7959  0.7959  0.4851  0.4851  0.3966  0.3173
  0.2603  0.2307

 Free energy of the ion-electron system (eV)
  ---------------------------------------------------
  alpha Z        PSCENC =       425.40536297
  Ewald energy   TEWEN  =     37666.27953900
  -1/2 Hartree   DENC   =    -52919.21420864
  -exchange  EXHF       =         0.00000000
  -V(xc)+E(xc)   XCENC  =       578.87644443
  PAW double counting   =     12930.04735370   -12803.36463598
  entropy T*S    EENTRO =         0.00296802
  eigenvalues    EBANDS =     -1932.16736420
  atomic energy  EATOM  =     15809.11153208
  ---------------------------------------------------
  free energy    TOTEN  =      -245.02300864 eV

  energy without entropy =     -245.02597665  energy(sigma->0) =     -245.02399798


--------------------------------------------------------------------------------------------------------




----------------------------------------- Iteration    1(  18)  ---------------------------------------


    POTLOK:  cpu time    0.04: real time    0.04
    SETDIJ:  cpu time    0.01: real time    0.01
     EDDAV:  cpu time    1.03: real time    1.03
       DOS:  cpu time    0.00: real time    0.00
    CHARGE:  cpu time    0.03: real time    0.03
    MIXING:  cpu time    0.00: real time    0.00
    --------------------------------------------
      LOOP:  cpu time    1.10: real time    1.30

 eigenvalue-minimisations  :  2000
 total energy-change (2. order) :-0.1679601E+00  (-0.2235345E-01)
 number of electron     234.0000085 magnetization      -1.7664336
 augmentation part       68.7763591 magnetization      -0.3223560

 Broyden mixing:
  rms(total) = 0.16018E+00    rms(broyden)= 0.15992E+00
  rms(prec ) = 0.17558E+00
  weight for this iteration     100.00

 eigenvalues of (default mixing * dielectric matrix)
  average eigenvalue GAMMA=   0.8598
  2.1227  2.1227  1.3575  1.3575  0.8327  0.8327  0.4770  0.4770  0.4706  0.2314
  0.2632  0.3164  0.3164

 Free energy of the ion-electron system (eV)
  ---------------------------------------------------
  alpha Z        PSCENC =       425.40536297
  Ewald energy   TEWEN  =     37666.27953900
  -1/2 Hartree   DENC   =    -52922.50129369
  -exchange  EXHF       =         0.00000000
  -V(xc)+E(xc)   XCENC  =       579.41309241
  PAW double counting   =     12956.18002188   -12829.46637500
  entropy T*S    EENTRO =        -0.00821126
  eigenvalues    EBANDS =     -1929.60463708
  atomic energy  EATOM  =     15809.11153208
  ---------------------------------------------------
  free energy    TOTEN  =      -245.19096870 eV

  energy without entropy =     -245.18275743  energy(sigma->0) =     -245.18823161


--------------------------------------------------------------------------------------------------------




----------------------------------------- Iteration    1(  19)  ---------------------------------------


    POTLOK:  cpu time    0.03: real time    0.03
    SETDIJ:  cpu time    0.00: real time    0.01
     EDDAV:  cpu time    0.90: real time    0.90
       DOS:  cpu time    0.00: real time    0.00
    CHARGE:  cpu time    0.03: real time    0.03
    MIXING:  cpu time    0.00: real time    0.00
    --------------------------------------------
      LOOP:  cpu time    0.97: real time    1.05

 eigenvalue-minimisations  :  1704
 total energy-change (2. order) :-0.5516820E-01  (-0.8395483E-02)
 number of electron     234.0000084 magnetization      -1.8159492
 augmentation part       68.7839639 magnetization      -0.3559809

 Broyden mixing:
  rms(total) = 0.93144E-01    rms(broyden)= 0.93049E-01
  rms(prec ) = 0.10362E+00
  weight for this iteration     100.00

 eigenvalues of (default mixing * dielectric matrix)
  average eigenvalue GAMMA=   0.8717
  2.0475  2.0475  1.5532  1.5532  0.8731  0.8731  0.6282  0.6282  0.4491  0.4123
  0.2311  0.2608  0.3158  0.3311

 Free energy of the ion-electron system (eV)
  ---------------------------------------------------
  alpha Z        PSCENC =       425.40536297
  Ewald energy   TEWEN  =     37666.27953900
  -1/2 Hartree   DENC   =    -52927.80114289
  -exchange  EXHF       =         0.00000000
  -V(xc)+E(xc)   XCENC  =       579.72920216
  PAW double counting   =     12967.23371268   -12840.68942668
  entropy T*S    EENTRO =        -0.00330650
  eigenvalues    EBANDS =     -1924.51160973
  atomic energy  EATOM  =     15809.11153208
  ---------------------------------------------------
  free energy    TOTEN  =      -245.24613690 eV

  energy without entropy =     -245.24283040  energy(sigma->0) =     -245.24503473


--------------------------------------------------------------------------------------------------------




----------------------------------------- Iteration    1(  20)  ---------------------------------------


    POTLOK:  cpu time    0.03: real time    0.03
    SETDIJ:  cpu time    0.01: real time    0.01
     EDDAV:  cpu time    0.93: real time    0.93
       DOS:  cpu time    0.00: real time    0.00
    CHARGE:  cpu time    0.03: real time    0.03
    MIXING:  cpu time    0.00: real time    0.00
    --------------------------------------------
      LOOP:  cpu time    1.00: real time    1.08

 eigenvalue-minimisations  :  1768
 total energy-change (2. order) :-0.9487255E-01  (-0.5699338E-02)
 number of electron     234.0000084 magnetization      -1.8473515
 augmentation part       68.7595187 magnetization      -0.3913258

 Broyden mixing:
  rms(total) = 0.57405E-01    rms(broyden)= 0.57346E-01
  rms(prec ) = 0.62968E-01
  weight for this iteration     100.00

 eigenvalues of (default mixing * dielectric matrix)
  average eigenvalue GAMMA=   0.8652
  1.9857  1.9857  1.6876  1.6876  0.8601  0.8601  0.7192  0.7192  0.4748  0.4748
  0.3983  0.2310  0.2609  0.3219  0.3113

 Free energy of the ion-electron system (eV)
  ---------------------------------------------------
  alpha Z        PSCENC =       425.40536297
  Ewald energy   TEWEN  =     37666.27953900
  -1/2 Hartree   DENC   =    -52931.80337411
  -exchange  EXHF       =         0.00000000
  -V(xc)+E(xc)   XCENC  =       579.76982426
  PAW double counting   =     12972.42417616   -12846.09487645
  entropy T*S    EENTRO =        -0.00575904
  eigenvalues    EBANDS =     -1920.42743431
  atomic energy  EATOM  =     15809.11153208
  ---------------------------------------------------
  free energy    TOTEN  =      -245.34100944 eV

  energy without entropy =     -245.33525040  energy(sigma->0) =     -245.33908976


--------------------------------------------------------------------------------------------------------




----------------------------------------- Iteration    1(  21)  ---------------------------------------


    POTLOK:  cpu time    0.03: real time    0.03
    SETDIJ:  cpu time    0.01: real time    0.01
     EDDAV:  cpu time    0.88: real time    0.88
       DOS:  cpu time    0.00: real time    0.00
    CHARGE:  cpu time    0.03: real time    0.03
    MIXING:  cpu time    0.00: real time    0.00
    --------------------------------------------
      LOOP:  cpu time    0.95: real time    1.14

 eigenvalue-minimisations  :  1648
 total energy-change (2. order) :-0.7709318E-01  (-0.1820696E-02)
 number of electron     234.0000084 magnetization      -1.8866885
 augmentation part       68.7497032 magnetization      -0.4343086

 Broyden mixing:
  rms(total) = 0.37410E-01    rms(broyden)= 0.37364E-01
  rms(prec ) = 0.41807E-01
  weight for this iteration     100.00

 eigenvalues of (default mixing * dielectric matrix)
  average eigenvalue GAMMA=   0.8765
  1.9508  1.9508  1.6168  1.6168  1.5520  0.8330  0.8330  0.6543  0.5540  0.4745
  0.4745  0.3877  0.2311  0.2608  0.3117  0.3216

 Free energy of the ion-electron system (eV)
  ---------------------------------------------------
  alpha Z        PSCENC =       425.40536297
  Ewald energy   TEWEN  =     37666.27953900
  -1/2 Hartree   DENC   =    -52933.25009670
  -exchange  EXHF       =         0.00000000
  -V(xc)+E(xc)   XCENC  =       579.61498584
  PAW double counting   =     12973.41126899   -12847.16843700
  entropy T*S    EENTRO =        -0.00696691
  eigenvalues    EBANDS =     -1918.81529090
  atomic energy  EATOM  =     15809.11153208
  ---------------------------------------------------
  free energy    TOTEN  =      -245.41810262 eV

  energy without entropy =     -245.41113571  energy(sigma->0) =     -245.41578032


--------------------------------------------------------------------------------------------------------




----------------------------------------- Iteration    1(  22)  ---------------------------------------


    POTLOK:  cpu time    0.03: real time    0.03
    SETDIJ:  cpu time    0.01: real time    0.01
     EDDAV:  cpu time    0.88: real time    0.88
       DOS:  cpu time    0.00: real time    0.00
    CHARGE:  cpu time    0.03: real time    0.03
    MIXING:  cpu time    0.00: real time    0.00
    --------------------------------------------
      LOOP:  cpu time    0.95: real time    1.02

 eigenvalue-minimisations  :  1648
 total energy-change (2. order) :-0.7398005E-01  (-0.9153362E-03)
 number of electron     234.0000084 magnetization      -1.9041239
 augmentation part       68.7461603 magnetization      -0.4470041

 Broyden mixing:
  rms(total) = 0.28431E-01    rms(broyden)= 0.28381E-01
  rms(prec ) = 0.33848E-01
  weight for this iteration     100.00

 eigenvalues of (default mixing * dielectric matrix)
  average eigenvalue GAMMA=   0.8645
  1.9629  1.9629  1.6111  1.6111  1.5884  0.8730  0.8730  0.6798  0.5797  0.5797
  0.4449  0.4449  0.2311  0.2610  0.3588  0.3140  0.3205

 Free energy of the ion-electron system (eV)
  ---------------------------------------------------
  alpha Z        PSCENC =       425.40536297
  Ewald energy   TEWEN  =     37666.27953900
  -1/2 Hartree   DENC   =    -52936.65585804
  -exchange  EXHF       =         0.00000000
  -V(xc)+E(xc)   XCENC  =       579.56768367
  PAW double counting   =     12976.81268829   -12850.69622059
  entropy T*S    EENTRO =        -0.00508193
  eigenvalues    EBANDS =     -1915.31172814
  atomic energy  EATOM  =     15809.11153208
  ---------------------------------------------------
  free energy    TOTEN  =      -245.49208267 eV

  energy without entropy =     -245.48700075  energy(sigma->0) =     -245.49038870


--------------------------------------------------------------------------------------------------------




----------------------------------------- Iteration    1(  23)  ---------------------------------------


    POTLOK:  cpu time    0.03: real time    0.04
    SETDIJ:  cpu time    0.01: real time    0.01
     EDDAV:  cpu time    0.90: real time    0.90
       DOS:  cpu time    0.00: real time    0.00
    CHARGE:  cpu time    0.03: real time    0.03
    MIXING:  cpu time    0.00: real time    0.00
    --------------------------------------------
      LOOP:  cpu time    0.97: real time    1.04

 eigenvalue-minimisations  :  1696
 total energy-change (2. order) :-0.4051358E-01  (-0.3954836E-03)
 number of electron     234.0000084 magnetization      -1.9288764
 augmentation part       68.7414138 magnetization      -0.4734217

 Broyden mixing:
  rms(total) = 0.18872E-01    rms(broyden)= 0.18846E-01
  rms(prec ) = 0.21686E-01
  weight for this iteration     100.00

 eigenvalues of (default mixing * dielectric matrix)
  average eigenvalue GAMMA=   0.8849
  2.4677  1.9960  1.9960  1.4927  1.4927  0.8687  0.8687  0.6453  0.6453  0.5775
  0.5775  0.4081  0.4081  0.2311  0.2610  0.3522  0.3173  0.3229

 Free energy of the ion-electron system (eV)
  ---------------------------------------------------
  alpha Z        PSCENC =       425.40536297
  Ewald energy   TEWEN  =     37666.27953900
  -1/2 Hartree   DENC   =    -52937.42553516
  -exchange  EXHF       =         0.00000000
  -V(xc)+E(xc)   XCENC  =       579.49601910
  PAW double counting   =     12976.25293391   -12850.14010361
  entropy T*S    EENTRO =        -0.00774401
  eigenvalues    EBANDS =     -1914.50460054
  atomic energy  EATOM  =     15809.11153208
  ---------------------------------------------------
  free energy    TOTEN  =      -245.53259626 eV

  energy without entropy =     -245.52485225  energy(sigma->0) =     -245.53001492


--------------------------------------------------------------------------------------------------------




----------------------------------------- Iteration    1(  24)  ---------------------------------------


    POTLOK:  cpu time    0.04: real time    0.04
    SETDIJ:  cpu time    0.00: real time    0.01
     EDDAV:  cpu time    0.81: real time    0.81
       DOS:  cpu time    0.00: real time    0.00
    CHARGE:  cpu time    0.03: real time    0.03
    MIXING:  cpu time    0.00: real time    0.00
    --------------------------------------------
      LOOP:  cpu time    0.88: real time    1.23

 eigenvalue-minimisations  :  1432
 total energy-change (2. order) :-0.4233426E-01  (-0.2387220E-03)
 number of electron     234.0000084 magnetization      -1.9547639
 augmentation part       68.7409553 magnetization      -0.5004375

 Broyden mixing:
  rms(total) = 0.12343E-01    rms(broyden)= 0.12333E-01
  rms(prec ) = 0.14135E-01
  weight for this iteration     100.00

 eigenvalues of (default mixing * dielectric matrix)
  average eigenvalue GAMMA=   0.8987
  2.5267  2.0400  2.0400  1.6064  1.6064  0.8914  0.8914  0.7999  0.6804  0.6804
  0.5077  0.5077  0.4215  0.4215  0.2311  0.2610  0.3184  0.3217  0.3217

 Free energy of the ion-electron system (eV)
  ---------------------------------------------------
  alpha Z        PSCENC =       425.40536297
  Ewald energy   TEWEN  =     37666.27953900
  -1/2 Hartree   DENC   =    -52939.07212552
  -exchange  EXHF       =         0.00000000
  -V(xc)+E(xc)   XCENC  =       579.46405276
  PAW double counting   =     12977.06842898   -12850.97708215
  entropy T*S    EENTRO =        -0.00693629
  eigenvalues    EBANDS =     -1912.84770235
  atomic energy  EATOM  =     15809.11153208
  ---------------------------------------------------
  free energy    TOTEN  =      -245.57493052 eV

  energy without entropy =     -245.56799423  energy(sigma->0) =     -245.57261842


--------------------------------------------------------------------------------------------------------




----------------------------------------- Iteration    1(  25)  ---------------------------------------


    POTLOK:  cpu time    0.03: real time    0.04
    SETDIJ:  cpu time    0.01: real time    0.01
     EDDAV:  cpu time    0.76: real time    0.76
       DOS:  cpu time    0.00: real time    0.00
    CHARGE:  cpu time    0.03: real time    0.03
    MIXING:  cpu time    0.00: real time    0.00
    --------------------------------------------
      LOOP:  cpu time    0.84: real time    0.91

 eigenvalue-minimisations  :  1336
 total energy-change (2. order) :-0.4366167E-01  (-0.2219226E-03)
 number of electron     234.0000084 magnetization      -1.9793459
 augmentation part       68.7381973 magnetization      -0.5256096

 Broyden mixing:
  rms(total) = 0.88995E-02    rms(broyden)= 0.88924E-02
  rms(prec ) = 0.10445E-01
  weight for this iteration     100.00

 eigenvalues of (default mixing * dielectric matrix)
  average eigenvalue GAMMA=   0.9137
  2.7696  1.9406  1.9406  1.7229  1.7229  0.9752  0.9752  0.7993  0.7993  0.6621
  0.6621  0.5208  0.4605  0.4605  0.4086  0.2311  0.2610  0.3187  0.3220  0.3220

 Free energy of the ion-electron system (eV)
  ---------------------------------------------------
  alpha Z        PSCENC =       425.40536297
  Ewald energy   TEWEN  =     37666.27953900
  -1/2 Hartree   DENC   =    -52940.61106786
  -exchange  EXHF       =         0.00000000
  -V(xc)+E(xc)   XCENC  =       579.39160644
  PAW double counting   =     12976.64310327   -12850.57238869
  entropy T*S    EENTRO =        -0.00716118
  eigenvalues    EBANDS =     -1911.25911822
  atomic energy  EATOM  =     15809.11153208
  ---------------------------------------------------
  free energy    TOTEN  =      -245.61859218 eV

  energy without entropy =     -245.61143100  energy(sigma->0) =     -245.61620512


--------------------------------------------------------------------------------------------------------




----------------------------------------- Iteration    1(  26)  ---------------------------------------


    POTLOK:  cpu time    0.03: real time    0.03
    SETDIJ:  cpu time    0.01: real time    0.01
     EDDAV:  cpu time    0.75: real time    0.76
       DOS:  cpu time    0.00: real time    0.00
    CHARGE:  cpu time    0.03: real time    0.03
    MIXING:  cpu time    0.00: real time    0.00
    --------------------------------------------
      LOOP:  cpu time    0.83: real time    0.89

 eigenvalue-minimisations  :  1352
 total energy-change (2. order) :-0.3126458E-01  (-0.1476032E-03)
 number of electron     234.0000084 magnetization      -1.9952919
 augmentation part       68.7337894 magnetization      -0.5411231

 Broyden mixing:
  rms(total) = 0.65864E-02    rms(broyden)= 0.65747E-02
  rms(prec ) = 0.79432E-02
  weight for this iteration     100.00

 eigenvalues of (default mixing * dielectric matrix)
  average eigenvalue GAMMA=   0.9325
  3.1172  1.9810  1.9810  1.8812  1.4468  1.4468  0.8616  0.8616  0.8629  0.6854
  0.6854  0.4778  0.4778  0.4688  0.4688  0.4256  0.2311  0.2610  0.3189  0.3205
  0.3205

 Free energy of the ion-electron system (eV)
  ---------------------------------------------------
  alpha Z        PSCENC =       425.40536297
  Ewald energy   TEWEN  =     37666.27953900
  -1/2 Hartree   DENC   =    -52942.36994594
  -exchange  EXHF       =         0.00000000
  -V(xc)+E(xc)   XCENC  =       579.35247491
  PAW double counting   =     12976.26719295   -12850.20729404
  entropy T*S    EENTRO =        -0.00697768
  eigenvalues    EBANDS =     -1909.48174101
  atomic energy  EATOM  =     15809.11153208
  ---------------------------------------------------
  free energy    TOTEN  =      -245.64985676 eV

  energy without entropy =     -245.64287908  energy(sigma->0) =     -245.64753087


--------------------------------------------------------------------------------------------------------




----------------------------------------- Iteration    1(  27)  ---------------------------------------


    POTLOK:  cpu time    0.03: real time    0.03
    SETDIJ:  cpu time    0.01: real time    0.01
     EDDAV:  cpu time    0.71: real time    0.72
       DOS:  cpu time    0.00: real time    0.00
    CHARGE:  cpu time    0.03: real time    0.03
    MIXING:  cpu time    0.00: real time    0.00
    --------------------------------------------
      LOOP:  cpu time    0.79: real time    0.85

 eigenvalue-minimisations  :  1256
 total energy-change (2. order) :-0.1582716E-01  (-0.8211894E-04)
 number of electron     234.0000084 magnetization      -2.0119013
 augmentation part       68.7314145 magnetization      -0.5588129

 Broyden mixing:
  rms(total) = 0.56577E-02    rms(broyden)= 0.56529E-02
  rms(prec ) = 0.66979E-02
  weight for this iteration     100.00

 eigenvalues of (default mixing * dielectric matrix)
  average eigenvalue GAMMA=   0.9542
  3.6202  1.9841  1.9841  1.5276  1.5276  1.4398  1.4398  0.8564  0.8564  0.6994
  0.6994  0.5172  0.5172  0.4962  0.4962  0.4386  0.4386  0.2311  0.2610  0.3188
  0.3211  0.3211

 Free energy of the ion-electron system (eV)
  ---------------------------------------------------
  alpha Z        PSCENC =       425.40536297
  Ewald energy   TEWEN  =     37666.27953900
  -1/2 Hartree   DENC   =    -52943.24125408
  -exchange  EXHF       =         0.00000000
  -V(xc)+E(xc)   XCENC  =       579.32718935
  PAW double counting   =     12975.55356488   -12849.47201329
  entropy T*S    EENTRO =        -0.00743104
  eigenvalues    EBANDS =     -1908.62217379
  atomic energy  EATOM  =     15809.11153208
  ---------------------------------------------------
  free energy    TOTEN  =      -245.66568392 eV

  energy without entropy =     -245.65825288  energy(sigma->0) =     -245.66320690


--------------------------------------------------------------------------------------------------------




----------------------------------------- Iteration    1(  28)  ---------------------------------------


    POTLOK:  cpu time    0.03: real time    0.03
    SETDIJ:  cpu time    0.01: real time    0.01
     EDDAV:  cpu time    0.67: real time    0.67
       DOS:  cpu time    0.00: real time    0.00
    CHARGE:  cpu time    0.03: real time    0.03
    MIXING:  cpu time    0.00: real time    0.00
    --------------------------------------------
      LOOP:  cpu time    0.74: real time    0.92

 eigenvalue-minimisations  :  1144
 total energy-change (2. order) :-0.9568507E-02  (-0.6348262E-04)
 number of electron     234.0000084 magnetization      -2.0230340
 augmentation part       68.7335648 magnetization      -0.5697010

 Broyden mixing:
  rms(total) = 0.33658E-02    rms(broyden)= 0.33626E-02
  rms(prec ) = 0.40535E-02
  weight for this iteration     100.00

 eigenvalues of (default mixing * dielectric matrix)
  average eigenvalue GAMMA=   0.9852
  4.1210  1.9694  1.9694  1.8324  1.6445  1.6445  1.1115  0.8569  0.8569  0.8031
  0.7319  0.7319  0.5549  0.5549  0.4747  0.4747  0.4453  0.4285  0.2311  0.2610
  0.3188  0.3211  0.3211

 Free energy of the ion-electron system (eV)
  ---------------------------------------------------
  alpha Z        PSCENC =       425.40536297
  Ewald energy   TEWEN  =     37666.27953900
  -1/2 Hartree   DENC   =    -52944.23278692
  -exchange  EXHF       =         0.00000000
  -V(xc)+E(xc)   XCENC  =       579.31758751
  PAW double counting   =     12975.23096291   -12849.13078787
  entropy T*S    EENTRO =        -0.00733671
  eigenvalues    EBANDS =     -1907.64932539
  atomic energy  EATOM  =     15809.11153208
  ---------------------------------------------------
  free energy    TOTEN  =      -245.67525243 eV

  energy without entropy =     -245.66791572  energy(sigma->0) =     -245.67280686


--------------------------------------------------------------------------------------------------------




----------------------------------------- Iteration    1(  29)  ---------------------------------------


    POTLOK:  cpu time    0.03: real time    0.03
    SETDIJ:  cpu time    0.00: real time    0.01
     EDDAV:  cpu time    0.61: real time    0.61
       DOS:  cpu time    0.00: real time    0.00
    CHARGE:  cpu time    0.03: real time    0.03
    MIXING:  cpu time    0.00: real time    0.00
    --------------------------------------------
      LOOP:  cpu time    0.69: real time    0.75

 eigenvalue-minimisations  :  1000
 total energy-change (2. order) :-0.3238304E-02  (-0.3210309E-04)
 number of electron     234.0000084 magnetization      -2.0280236
 augmentation part       68.7340783 magnetization      -0.5738843

 Broyden mixing:
  rms(total) = 0.22319E-02    rms(broyden)= 0.22292E-02
  rms(prec ) = 0.27242E-02
  weight for this iteration     100.00

 eigenvalues of (default mixing * dielectric matrix)
  average eigenvalue GAMMA=   1.0171
  4.7017  1.9560  1.9560  1.7958  1.7958  1.7608  1.1992  1.1992  0.8293  0.8293
  0.6855  0.6855  0.6049  0.5509  0.5509  0.4942  0.4731  0.4731  0.4168  0.2311
  0.2610  0.3188  0.3210  0.3210

 Free energy of the ion-electron system (eV)
  ---------------------------------------------------
  alpha Z        PSCENC =       425.40536297
  Ewald energy   TEWEN  =     37666.27953900
  -1/2 Hartree   DENC   =    -52944.99508883
  -exchange  EXHF       =         0.00000000
  -V(xc)+E(xc)   XCENC  =       579.31884010
  PAW double counting   =     12974.92979249   -12848.82169868
  entropy T*S    EENTRO =        -0.00742298
  eigenvalues    EBANDS =     -1906.89934688
  atomic energy  EATOM  =     15809.11153208
  ---------------------------------------------------
  free energy    TOTEN  =      -245.67849073 eV

  energy without entropy =     -245.67106775  energy(sigma->0) =     -245.67601640


--------------------------------------------------------------------------------------------------------




----------------------------------------- Iteration    1(  30)  ---------------------------------------


    POTLOK:  cpu time    0.03: real time    0.03
    SETDIJ:  cpu time    0.01: real time    0.01
     EDDAV:  cpu time    0.55: real time    0.55
       DOS:  cpu time    0.00: real time    0.00
    CHARGE:  cpu time    0.03: real time    0.03
    MIXING:  cpu time    0.00: real time    0.00
    --------------------------------------------
      LOOP:  cpu time    0.63: real time    0.82

 eigenvalue-minimisations  :   856
 total energy-change (2. order) :-0.9948304E-03  (-0.1242232E-04)
 number of electron     234.0000084 magnetization      -2.0298135
 augmentation part       68.7346860 magnetization      -0.5754006

 Broyden mixing:
  rms(total) = 0.16540E-02    rms(broyden)= 0.16525E-02
  rms(prec ) = 0.20169E-02
  weight for this iteration     100.00

 eigenvalues of (default mixing * dielectric matrix)
  average eigenvalue GAMMA=   1.0412
  5.1285  2.3284  1.9691  1.9691  1.7262  1.7262  1.2584  1.2584  0.8494  0.8494
  0.6736  0.6736  0.6307  0.6307  0.5098  0.5098  0.5376  0.4656  0.4656  0.4164
  0.2311  0.2610  0.3188  0.3210  0.3210

 Free energy of the ion-electron system (eV)
  ---------------------------------------------------
  alpha Z        PSCENC =       425.40536297
  Ewald energy   TEWEN  =     37666.27953900
  -1/2 Hartree   DENC   =    -52945.36577914
  -exchange  EXHF       =         0.00000000
  -V(xc)+E(xc)   XCENC  =       579.32133447
  PAW double counting   =     12974.79374676   -12848.68059390
  entropy T*S    EENTRO =        -0.00740632
  eigenvalues    EBANDS =     -1906.53722148
  atomic energy  EATOM  =     15809.11153208
  ---------------------------------------------------
  free energy    TOTEN  =      -245.67948556 eV

  energy without entropy =     -245.67207924  energy(sigma->0) =     -245.67701679


--------------------------------------------------------------------------------------------------------




----------------------------------------- Iteration    1(  31)  ---------------------------------------


    POTLOK:  cpu time    0.04: real time    0.04
    SETDIJ:  cpu time    0.01: real time    0.01
     EDDAV:  cpu time    0.52: real time    0.52
       DOS:  cpu time    0.00: real time    0.00
    CHARGE:  cpu time    0.03: real time    0.03
    MIXING:  cpu time    0.00: real time    0.00
    --------------------------------------------
      LOOP:  cpu time    0.59: real time    0.67

 eigenvalue-minimisations  :   760
 total energy-change (2. order) :-0.3353504E-03  (-0.5265487E-05)
 number of electron     234.0000084 magnetization      -2.0308986
 augmentation part       68.7341161 magnetization      -0.5765593

 Broyden mixing:
  rms(total) = 0.10557E-02    rms(broyden)= 0.10548E-02
  rms(prec ) = 0.13101E-02
  weight for this iteration     100.00

 eigenvalues of (default mixing * dielectric matrix)
  average eigenvalue GAMMA=   1.0542
  5.4623  2.4393  1.9707  1.9707  1.7117  1.7117  1.3159  1.3159  0.8613  0.8613
  0.8704  0.6810  0.6810  0.6086  0.5310  0.5310  0.5436  0.5436  0.4653  0.4653
  0.4160  0.2311  0.2610  0.3188  0.3210  0.3210

 Free energy of the ion-electron system (eV)
  ---------------------------------------------------
  alpha Z        PSCENC =       425.40536297
  Ewald energy   TEWEN  =     37666.27953900
  -1/2 Hartree   DENC   =    -52945.58092967
  -exchange  EXHF       =         0.00000000
  -V(xc)+E(xc)   XCENC  =       579.32049593
[...]
  0.070  -0.379  -0.141   0.015 -12.558  -0.008   0.040   0.019
  0.831   0.003  -0.003   0.020  -0.008   0.246  -0.004   0.001
  0.003   0.737  -0.046  -0.005   0.040  -0.004   0.299   0.025
 -0.003  -0.046   0.819  -0.012   0.019   0.001   0.025   0.257
  0.020  -0.005  -0.012   0.837  -0.004  -0.007   0.003   0.005
 -0.008   0.040   0.019  -0.004   0.820   0.004  -0.023  -0.009
  0.002   0.001  -0.001  -0.009   0.002  -0.000  -0.002  -0.001
 -0.000  -0.000   0.000   0.001  -0.000   0.000   0.000  -0.000
 -0.045  -0.020   0.000  -0.002   0.006   0.008   0.003  -0.000
 -0.002  -0.010  -0.023  -0.043   0.000   0.001   0.002   0.004
 -0.004  -0.002   0.027  -0.019  -0.045   0.001   0.001  -0.005
  0.043   0.012   0.001  -0.000  -0.003  -0.008  -0.002  -0.000
 -0.000   0.006   0.013   0.041  -0.001  -0.000  -0.001  -0.003
  0.001  -0.000  -0.025   0.010   0.041  -0.000  -0.000   0.005
 pseudopotential strength for first ion, spin component:           2
 -7.452   0.043   0.023   0.116  -0.053  -0.031  -0.010  -0.003
  0.043  -8.004  -0.400  -0.017   0.410  -0.010   0.061   0.061
  0.023  -0.400  -7.510  -0.048   0.078  -0.003   0.061  -0.015
  0.116  -0.017  -0.048  -7.448   0.045  -0.010   0.004   0.006
 -0.053   0.410   0.078   0.045  -7.334   0.008  -0.064  -0.010
 -0.031  -0.010  -0.003  -0.010   0.008   0.556   0.002   0.001
 -0.010   0.061   0.061   0.004  -0.064   0.002   0.525  -0.023
 -0.003   0.061  -0.015   0.006  -0.010   0.001  -0.023   0.552
 -0.010   0.004   0.006  -0.030  -0.008   0.006  -0.001  -0.003
  0.008  -0.064  -0.010  -0.008  -0.042  -0.003   0.024   0.004
  0.004   0.048   0.023  -0.011  -0.020  -0.001  -0.009  -0.004
 -0.001  -0.005  -0.002   0.002   0.002   0.000   0.001   0.000
 -0.076  -0.016   0.002   0.008   0.005   0.016   0.002  -0.000
  0.008  -0.004  -0.013  -0.071   0.002  -0.002   0.000   0.001
 -0.002   0.008   0.039  -0.011  -0.063   0.000  -0.002  -0.008
  0.055   0.010  -0.000  -0.005  -0.003  -0.012  -0.002   0.000
 -0.005   0.003   0.008   0.052  -0.002   0.001  -0.000  -0.001
  0.000  -0.005  -0.029   0.006   0.046  -0.000   0.001   0.006
 total augmentation occupancy for first ion, spin component:           1
  1.126   0.019  -0.006  -0.026  -0.003  -0.111  -0.031  -0.005  -0.085   0.029   0.006  -0.009   0.023  -0.020   0.009  -0.041
  0.019   1.037  -0.005  -0.013   0.002  -0.032   0.284   0.251   0.022  -0.230   0.126  -0.079  -0.052  -0.048  -0.072  -0.007
 -0.006  -0.005   1.083   0.001   0.007  -0.006   0.249  -0.060   0.024  -0.091   0.056  -0.053  -0.019  -0.038  -0.031  -0.000
 -0.026  -0.013   0.001   1.124  -0.003  -0.084   0.021   0.023  -0.115  -0.017  -0.001  -0.026  -0.022   0.010  -0.021   0.007
 -0.003   0.002   0.007  -0.003   1.058   0.029  -0.229  -0.091  -0.017  -0.124  -0.028   0.035   0.022   0.013   0.024   0.000
 -0.111  -0.032  -0.006  -0.084   0.029   0.676   0.019  -0.057  -0.184  -0.010   0.055  -0.012   0.189  -0.140   0.001  -0.001
 -0.031   0.284   0.249   0.021  -0.229   0.019   0.568   0.137  -0.029  -0.129   0.214  -0.114  -0.045  -0.066  -0.066   0.003
 -0.005   0.251  -0.060   0.023  -0.091  -0.057   0.137   0.495  -0.014  -0.029   0.139  -0.054  -0.037  -0.071  -0.067   0.000
 -0.085   0.022   0.024  -0.115  -0.017  -0.184  -0.029  -0.014   0.673  -0.013  -0.024   0.036  -0.133   0.159  -0.043   0.007
  0.029  -0.230  -0.091  -0.017  -0.124  -0.010  -0.129  -0.029  -0.013   0.364  -0.029   0.003   0.018   0.006   0.097  -0.001
  0.006   0.126   0.056  -0.001  -0.028   0.055   0.214   0.139  -0.024  -0.029   1.125  -0.301  -0.034  -0.077   0.190   0.001
 -0.009  -0.079  -0.053  -0.026   0.035  -0.012  -0.114  -0.054   0.036   0.003  -0.301   0.225   0.010   0.033  -0.079  -0.000
  0.023  -0.052  -0.019  -0.022   0.022   0.189  -0.045  -0.037  -0.133   0.018  -0.034   0.010   0.202   0.064   0.004  -0.010
 -0.020  -0.048  -0.038   0.010   0.013  -0.140  -0.066  -0.071   0.159   0.006  -0.077   0.033   0.064   0.251  -0.001  -0.004
  0.009  -0.072  -0.031  -0.021   0.024   0.001  -0.066  -0.067  -0.043   0.097   0.190  -0.079   0.004  -0.001   0.132  -0.000
 -0.041  -0.007  -0.000   0.007   0.000  -0.001   0.003   0.000   0.007  -0.001   0.001  -0.000  -0.010  -0.004  -0.000   0.002
  0.007  -0.000  -0.007  -0.035   0.000   0.007   0.001   0.004  -0.002   0.001  -0.000  -0.001  -0.004  -0.013   0.000   0.000
  0.001   0.004   0.021  -0.007  -0.032  -0.001   0.014   0.003   0.005  -0.003  -0.018   0.007  -0.001  -0.000  -0.010  -0.000
 total augmentation occupancy for first ion, spin component:           2
  0.837   0.018   0.007   0.058  -0.027  -0.413  -0.024   0.015   0.014   0.010  -0.029  -0.003  -0.082   0.054   0.005  -0.028
  0.018   0.540  -0.185  -0.013   0.184  -0.029  -0.217   0.063   0.018  -0.051  -0.051  -0.021  -0.007   0.010   0.001  -0.005
  0.007  -0.185   0.800  -0.030   0.042   0.012   0.061  -0.342   0.004  -0.041  -0.039  -0.021   0.005   0.011   0.027   0.000
  0.058  -0.013  -0.030   0.843   0.006   0.015   0.017   0.005  -0.408  -0.006  -0.010  -0.027   0.044  -0.066   0.006   0.001
 -0.027   0.184   0.042   0.006   0.866   0.012  -0.049  -0.040  -0.006  -0.321   0.018   0.030   0.001   0.004  -0.037   0.000
 -0.413  -0.029   0.012   0.015   0.012   0.321   0.033  -0.031  -0.041  -0.026   0.011   0.004   0.062  -0.050  -0.007   0.015
 -0.024  -0.217   0.061   0.017  -0.049   0.033  -0.040  -0.111  -0.037   0.090  -0.025   0.008   0.018   0.006   0.018   0.002
  0.015   0.063  -0.342   0.005  -0.040  -0.031  -0.111   0.175  -0.020   0.059   0.010   0.013  -0.004  -0.008  -0.003  -0.001
  0.014   0.018   0.004  -0.408  -0.006  -0.041  -0.037  -0.020   0.331   0.005  -0.008   0.017  -0.044   0.059  -0.007  -0.001
  0.010  -0.051  -0.041  -0.006  -0.321  -0.026   0.090   0.059   0.005   0.136   0.019  -0.007  -0.009  -0.009   0.014  -0.000
 -0.029  -0.051  -0.039  -0.010   0.018   0.011  -0.025   0.010  -0.008   0.019   0.159   0.115   0.005   0.003   0.006   0.001
 -0.003  -0.021  -0.021  -0.027   0.030   0.004   0.008   0.013   0.017  -0.007   0.115  -0.055  -0.004  -0.003   0.022   0.000
 -0.082  -0.007   0.005   0.044   0.001   0.062   0.018  -0.004  -0.044  -0.009   0.005  -0.004   0.025  -0.012  -0.002   0.003
  0.054   0.010   0.011  -0.066   0.004  -0.050   0.006  -0.008   0.059  -0.009   0.003  -0.003  -0.012   0.026  -0.002  -0.002
  0.005   0.001   0.027   0.006  -0.037  -0.007   0.018  -0.003  -0.007   0.014   0.006   0.022  -0.002  -0.002   0.010  -0.000
 -0.028  -0.005   0.000   0.001   0.000   0.015   0.002  -0.001  -0.001  -0.000   0.001   0.000   0.003  -0.002  -0.000   0.001
  0.001   0.001  -0.006  -0.024  -0.001  -0.001  -0.001   0.003   0.012   0.001   0.000   0.001  -0.002   0.002  -0.000  -0.000
  0.001  -0.006   0.014  -0.007  -0.024  -0.001   0.002  -0.006   0.004   0.008  -0.004  -0.003  -0.000   0.001   0.002  -0.000


------------------------ aborting loop because EDIFF is reached ----------------------------------------


    CHARGE:  cpu time    0.03: real time    0.03
    FORLOC:  cpu time    0.00: real time    0.00
    FORNL :  cpu time    0.31: real time    0.31
    STRESS:  cpu time    0.31: real time    0.31
    FORCOR:  cpu time    0.03: real time    0.03
    FORHAR:  cpu time    0.00: real time    0.01
    MIXING:  cpu time    0.00: real time    0.00

  FORCE on cell =-STRESS in cart. coord.  units (eV):
  Direction    XX          YY          ZZ          XY          YZ          ZX
  --------------------------------------------------------------------------------------
  Alpha Z   425.40536   425.40536   425.40536
  Ewald  -53034.81237 44307.87945 46264.67102   -76.69094   -46.84523   -95.19222
  Hartree-46580.47267 49194.03662 50207.03426   -33.26439   -29.04915   -48.21592
  E(xc)   -1144.69223 -1144.58161 -1144.86568     0.20107    -0.12504     0.04856
  Local   95411.64538-97801.41372************   109.06409    68.46342   135.98175
  n-local   281.64450   280.05642   289.69107    -0.70794     0.68481    -0.17619
  augment  1411.73623  1428.99544  1418.41660    -0.43040     2.44146     1.18188
  Kinetic  3238.81490  3311.57822  3261.24975     1.23439     3.73174     1.14446
  Fock        0.00000     0.00000     0.00000     0.00000     0.00000     0.00000
  -------------------------------------------------------------------------------------
  Total       9.26909     1.95618    18.72305    -0.59411    -0.69800    -5.22768
  in kB      19.28845     4.07070    38.96159    -1.23631    -1.45249   -10.87849
  external pressure =       20.77 kB  Pullay stress =        0.00 kB


 VOLUME and BASIS-vectors are now :
 -----------------------------------------------------------------------------
  energy-cutoff  :      367.69
  volume of cell :      769.93
      direct lattice vectors                 reciprocal lattice vectors
    18.544599530  0.000000000  0.000000000     0.053924055  0.000000000  0.000000000
     0.000000000  4.453300000  0.000000000     0.000000000  0.224552579  0.000000000
     0.000000000  0.000000000  9.322899820     0.000000000  0.000000000  0.107262764

  length of vectors
    18.544599530  4.453300000  9.322899820     0.053924055  0.224552579  0.107262764


 FORCES acting on ions
    electron-ion (+dipol)            ewald-force                    non-local-force                 convergence-correction
 -----------------------------------------------------------------------------------------------
   0.157E+04 -.125E+02 -.570E+02   -.156E+04 0.124E+02 0.585E+02   -.778E+01 0.102E+01 0.931E+00   0.275E-02 -.818E-02 -.211E-01
   -.133E+04 -.133E+02 0.184E+02   0.133E+04 0.132E+02 -.184E+02   0.130E+01 0.369E-01 0.174E+00   -.125E-01 0.282E-01 -.859E-01
   -.147E+04 -.656E+01 0.348E+02   0.147E+04 0.587E+01 -.346E+02   0.480E+01 0.720E+00 -.204E+00   -.796E-01 0.819E-02 0.513E-02
   0.157E+04 0.125E+02 -.581E+02   -.156E+04 -.124E+02 0.597E+02   -.753E+01 -.984E+00 0.921E+00   0.126E-01 -.543E-03 0.272E-01
   0.334E+03 -.110E+02 -.775E+02   -.333E+03 0.110E+02 0.821E+02   -.207E+00 0.355E+00 -.828E-01   -.206E+00 -.981E-03 -.465E-02
   -.258E+03 -.152E+02 0.698E+02   0.259E+03 0.151E+02 -.730E+02   -.149E+00 0.461E+00 -.126E+00   -.231E+00 0.379E-02 -.980E-02
   -.273E+03 0.140E+02 0.679E+02   0.273E+03 -.139E+02 -.712E+02   0.419E-01 -.757E+00 0.116E+00   -.230E+00 0.130E-02 -.281E-02
   0.334E+03 0.992E+01 -.824E+02   -.333E+03 -.971E+01 0.871E+02   0.162E-01 -.439E+00 -.713E-01   -.229E+00 0.319E-02 0.249E-01
   -.875E+03 -.343E+02 -.398E+01   0.877E+03 0.335E+02 0.589E+01   -.147E+01 0.841E+00 -.193E+01   -.213E+00 -.275E-03 0.148E-02
   0.959E+03 -.939E+01 0.805E+02   -.961E+03 0.951E+01 -.852E+02   0.709E+00 0.290E+00 0.182E+00   -.139E+00 0.146E-02 0.118E-01
   0.958E+03 0.933E+01 0.809E+02   -.960E+03 -.947E+01 -.855E+02   0.773E+00 -.303E+00 0.264E+00   -.156E+00 0.651E-03 -.242E-01
   -.880E+03 0.422E+01 -.772E+02   0.882E+03 -.373E+01 0.776E+02   -.181E+01 -.502E+00 -.314E+00   -.262E+00 0.355E-01 0.157E-01
   0.128E+04 0.425E+01 -.210E+01   -.130E+04 -.407E+01 0.987E+01   0.146E+02 -.794E+00 -.827E+01   -.468E-02 -.202E-02 -.164E-02
   -.119E+04 -.168E+02 0.610E+02   0.121E+04 0.224E+02 -.681E+02   -.201E+02 -.563E+01 0.717E+01   -.530E-01 0.956E-02 -.393E-01
   -.126E+04 0.110E+02 -.580E+01   0.128E+04 -.178E+02 -.309E+01   -.214E+02 0.677E+01 0.887E+01   -.495E-01 0.659E-02 0.227E-01
   0.128E+04 -.441E+01 -.293E+01   -.130E+04 0.407E+01 0.104E+02   0.146E+02 0.917E+00 -.798E+01   0.989E-03 0.261E-02 -.732E-02
   0.291E+03 0.442E+02 0.263E+02   -.291E+03 -.529E+02 -.292E+02   0.700E+00 0.928E+01 0.333E+01   -.173E+00 -.231E-02 -.507E-02
   -.212E+03 0.427E+02 -.137E+02   0.211E+03 -.535E+02 0.140E+02   0.158E+01 0.113E+02 -.338E+00   -.187E+00 0.264E-02 -.104E-01
   -.225E+03 -.419E+02 -.209E+02   0.227E+03 0.512E+02 0.203E+02   -.763E+00 -.958E+01 0.546E+00   -.207E+00 0.287E-02 0.102E-01
   0.287E+03 -.435E+02 0.241E+02   -.288E+03 0.530E+02 -.272E+02   0.133E+01 -.996E+01 0.370E+01   -.187E+00 0.115E-02 -.184E-02
   -.721E+03 0.460E+02 0.412E+02   0.720E+03 -.513E+02 -.399E+02   0.159E+01 0.532E+01 -.125E+01   -.204E+00 -.123E-01 -.526E-01
   0.814E+03 0.469E+02 -.268E+02   -.815E+03 -.550E+02 0.288E+02   0.171E+01 0.778E+01 -.184E+01   -.115E+00 0.619E-02 -.110E-01
   0.813E+03 -.467E+02 -.275E+02   -.814E+03 0.550E+02 0.300E+02   0.118E+01 -.803E+01 -.234E+01   -.132E+00 -.932E-02 -.254E-03
   -.749E+03 -.558E+02 0.172E+02   0.745E+03 0.687E+02 -.203E+02   0.411E+01 -.129E+02 0.300E+01   -.173E+00 -.383E-02 0.312E-01
   0.129E+04 -.136E+03 0.324E+02   -.131E+04 0.164E+03 -.440E+02   0.141E+02 -.280E+02 0.114E+02   0.804E-03 -.123E-01 0.289E-01
   -.128E+04 -.121E+03 0.283E+01   0.130E+04 0.140E+03 0.905E+01   -.204E+02 -.195E+02 -.119E+02   -.320E-01 0.748E-02 -.229E-02
   -.119E+04 0.145E+03 -.763E+02   0.121E+04 -.171E+03 0.840E+02   -.184E+02 0.257E+02 -.771E+01   -.384E-02 -.321E-01 -.111E-01
   0.129E+04 0.136E+03 0.329E+02   -.131E+04 -.164E+03 -.446E+02   0.141E+02 0.279E+02 0.117E+02   0.226E-02 0.953E-02 -.142E-01
   0.288E+03 -.195E+03 0.502E+01   -.288E+03 0.237E+03 -.691E+01   0.152E+00 -.416E+02 0.153E+01   -.182E+00 -.134E-02 0.117E-01
   -.254E+03 -.183E+03 -.114E+02   0.259E+03 0.221E+03 0.146E+02   -.420E+01 -.381E+02 -.216E+01   -.186E+00 -.176E-03 -.443E-02
   -.237E+03 0.185E+03 -.200E+02   0.242E+03 -.224E+03 0.229E+02   -.395E+01 0.388E+02 -.182E+01   -.216E+00 0.861E-03 0.105E-01
   0.286E+03 0.194E+03 0.797E+01   -.286E+03 -.236E+03 -.989E+01   0.501E+00 0.417E+02 0.142E+01   -.178E+00 0.324E-02 -.111E-01
   -.737E+03 -.178E+03 -.260E+02   0.740E+03 0.213E+03 0.244E+02   -.203E+01 -.343E+02 0.152E+01   -.206E+00 0.150E-01 0.472E-03
   0.815E+03 -.192E+03 -.302E+01   -.816E+03 0.232E+03 0.594E+01   0.948E+00 -.394E+02 -.287E+01   -.121E+00 -.110E-01 -.137E-01
   0.816E+03 0.192E+03 -.514E+01   -.816E+03 -.232E+03 0.746E+01   0.435E+00 0.399E+02 -.238E+01   -.128E+00 0.141E-01 0.290E-01
   -.742E+03 0.182E+03 -.124E+02   0.739E+03 -.218E+03 0.176E+02   0.341E+01 0.364E+02 -.515E+01   -.145E+00 -.167E-01 0.177E-01
   -.133E+04 0.256E+02 0.104E+02   0.136E+04 -.326E+02 -.907E+01   -.335E+02 0.688E+01 -.137E+01   0.862E-01 0.295E-01 0.346E-02
 -----------------------------------------------------------------------------------------------
   0.654E+02 -.116E+02 0.337E+01   0.227E-12 -.377E-12 -.270E-12   -.609E+02 0.115E+02 -.329E+01   -.453E+01 0.802E-01 -.826E-01
 
 
 POSITION                                       TOTAL-FORCE (eV/Angst)
 -----------------------------------------------------------------------------------
      5.71205      2.28454      1.12154        -0.616025      0.970310      2.401620
     12.97711      0.05827      3.44690         0.045197     -0.021550      0.057904
     12.74794      2.06159      8.11809        -0.051157      0.034092     -0.016991
      5.71205      4.39541      5.78299        -0.188325     -0.882930      2.491244
      8.56025      2.28454      1.12154         0.496789      0.321560      4.527821
      9.98435      0.05789      3.53991         1.019066      0.341593     -3.288496
      9.98435      2.16876      8.20136        -0.350718     -0.626078     -3.152571
      8.56025      4.39541      5.78299         0.844120     -0.224025      4.651106
     11.50764      2.28125      1.36005         0.008414      0.017560     -0.018189
      7.13615      0.05789      3.53991        -1.466496      0.414478     -4.460459
      7.13615      2.16876      8.20136        -1.479245     -0.441009     -4.384348
     11.51561      4.38186      5.95930         0.011199      0.023199      0.064603
      5.71205      3.53325      2.64957        -0.107532     -0.611926     -0.503794
     12.83417      1.33933      2.17788        -0.006124      0.011021     -0.014493
     12.94731      0.83461      6.82274        -0.009410     -0.010868      0.002042
      5.71205      3.14670      7.31102        -0.162403      0.571118     -0.563827
      8.56025      3.53325      2.64957        -0.018344      0.502820      0.493404
      9.98435      1.30660      2.01188         0.225126      0.479770     -0.082782
      9.98435      0.92005      6.67333         0.195780     -0.277744     -0.060671
      8.56025      3.14670      7.31102         0.116681     -0.475285      0.604453
     11.47348      3.58006      2.72897        -0.016531     -0.037276     -0.025834
      7.13615      1.30660      2.01188         0.315347     -0.297885      0.170300
      7.13615      0.92005      6.67333         0.078734      0.287310      0.153761
     11.43322      3.10889      7.39389         0.009002     -0.016702      0.010464
      5.71205      1.02916      4.32955        -0.319672     -0.274889     -0.082091
     13.03713      2.95575      0.35403        -0.017027     -0.015468      0.005290
     12.86467      3.49051      5.06374         0.019608      0.002729     -0.051960
      5.71205      1.19749      8.99100        -0.293695      0.270000     -0.049158
      8.56025      1.02916      4.32955        -0.021357      0.400722     -0.339560
      9.98435      3.25581      0.33190         0.568311      0.051676      1.016193
      9.98435      3.42414      4.99335         0.414945     -0.061977      1.040293
      8.56025      1.19749      8.99100         0.173696     -0.453952     -0.508670
     11.47359      0.96511      4.38696        -0.005994      0.022270     -0.044131
      7.13615      3.25581      0.33190         0.338357      0.859342      0.034793
      7.13615      3.42414      4.99335         0.243072     -0.806926     -0.032084
     11.41377      1.18064      9.08626         0.011698      0.015527      0.009921
     14.60883     -0.23617      3.46112        -0.005088     -0.060608     -0.055103
 -----------------------------------------------------------------------------------
    total drift:                               -0.063961      0.005908      0.000529


--------------------------------------------------------------------------------------------------------



  FREE ENERGIE OF THE ION-ELECTRON SYSTEM (eV)
  ---------------------------------------------------
  free  energy   TOTEN  =      -246.22647846 eV

  energy  without entropy=     -246.19223664  energy(sigma->0) =     -246.21506452
 
 d Force = 0.1951063E-04[-0.295E-04, 0.685E-04]  d Energy =-0.4577172E-05 0.241E-04
 d Force =-0.3018407E+00[-0.302E+00,-0.302E+00]  d Ewald  =-0.3018407E+00-0.561E-07


--------------------------------------------------------------------------------------------------------


    POTLOK:  cpu time    0.04: real time    0.04


--------------------------------------------------------------------------------------------------------




--------------------------------------------------------------------------------------------------------


  
 reached required accuracy - stopping structural energy minimisation
     LOOP+:  cpu time    2.95: real time    3.68
    4ORBIT:  cpu time    0.00: real time    0.00

 total amount of memory used by VASP on root node    36969. kBytes
========================================================================

   base      :      30000. kBytes
   nonl-proj :       1812. kBytes
   fftplans  :        902. kBytes
   grid      :       2239. kBytes
   one-center:        155. kBytes
   wavefun   :       1861. kBytes
 
  
  
 General timing and accounting informations for this job:
 ========================================================
  
                  Total CPU time used (sec):      275.750
                            User time (sec):      274.304
                          System time (sec):        1.446
                         Elapsed time (sec):      321.795
  
                   Maximum memory used (kb):      104696.
                   Average memory used (kb):           0.
  
                          Minor page faults:        32214
                          Major page faults:            0
                 Voluntary context switches:        17943
