 vasp.5.3.3 18Dez12 (build May 12 2016 12:04:25) complex                        
  
 executed on             LinuxIFC date 2017.03.09  11:06:49
 running on   32 total cores
 distrk:  each k-point on   32 cores,    1 groups
 distr:  one band on NCORES_PER_BAND=   4 cores,    8 groups


--------------------------------------------------------------------------------------------------------


 INCAR:
 POTCAR:    PAW_PBE Mn 06Sep2000                  
 POTCAR:    PAW_PBE O 08Apr2002                   
 POTCAR:    PAW_PBE Mn 06Sep2000                  
  local pseudopotential read in
  partial core-charges read in
  partial kinetic energy density read in
  atomic valenz-charges read in
  non local Contribution for L=           2  read in
    real space projection operators read in
  non local Contribution for L=           2  read in
    real space projection operators read in
  non local Contribution for L=           0  read in
    real space projection operators read in
  non local Contribution for L=           0  read in
    real space projection operators read in
  non local Contribution for L=           1  read in
    real space projection operators read in
  non local Contribution for L=           1  read in
    real space projection operators read in
    PAW grid and wavefunctions read in
 
   number of l-projection  operators is LMAX  =           6
   number of lm-projection operators is LMMAX =          18
 
 POTCAR:    PAW_PBE O 08Apr2002                   
  local pseudopotential read in
  partial core-charges read in
  partial kinetic energy density read in
  kinetic energy density of atom read in
  atomic valenz-charges read in
  non local Contribution for L=           0  read in
    real space projection operators read in
  non local Contribution for L=           0  read in
    real space projection operators read in
  non local Contribution for L=           1  read in
    real space projection operators read in
  non local Contribution for L=           1  read in
    real space projection operators read in
    PAW grid and wavefunctions read in
 
   number of l-projection  operators is LMAX  =           4
   number of lm-projection operators is LMMAX =           8
 
  PAW_PBE Mn 06Sep2000                  :
 energy of atom  1       EATOM= -416.7541
 kinetic energy error for atom=    0.0024 (will be added to EATOM!!)
  PAW_PBE O 08Apr2002                   :
 energy of atom  2       EATOM= -432.3788
 kinetic energy error for atom=    0.0208 (will be added to EATOM!!)
 
 
 POSCAR:                                         
  positions in direct lattice
  velocities in cartesian coordinates
 exchange correlation table for  LEXCH =        8
   RHO(1)=    0.500       N(1)  =     2000
   RHO(2)=  100.500       N(2)  =     4000
 


--------------------------------------------------------------------------------------------------------


 ion  position               nearest neighbor table
   1  0.250  0.021  0.135-   8 1.91   8 1.91   5 1.92  12 1.94  12 1.94  10 1.94   3 2.94   3 2.94

   2  0.250  0.479  0.635-   7 1.91   7 1.91   6 1.92  11 1.94  11 1.94   9 1.94   4 2.94   4 2.94

   3  0.750  0.979  0.865-   6 1.91   6 1.91   7 1.92  10 1.94  10 1.94  12 1.94   1 2.94   1 2.94

   4  0.750  0.521  0.365-   5 1.91   5 1.91   8 1.92   9 1.94   9 1.94  11 1.94   2 2.94   2 2.94

   5  0.250  0.310  0.283-   4 1.91   4 1.91   1 1.92
   6  0.250  0.190  0.783-   3 1.91   3 1.91   2 1.92
   7  0.750  0.690  0.717-   2 1.91   2 1.91   3 1.92
   8  0.750  0.810  0.217-   1 1.91   1 1.91   4 1.92
   9  0.250  0.712  0.463-   4 1.94   4 1.94   2 1.94
  10  0.250  0.788  0.963-   3 1.94   3 1.94   1 1.94
  11  0.750  0.288  0.537-   2 1.94   2 1.94   4 1.94
  12  0.750  0.212  0.037-   1 1.94   1 1.94   3 1.94
 
  LATTYP: Found a simple orthorhombic cell.
 ALAT       =     2.9217416777
 B/A-ratio  =     1.5685735708
 C/A-ratio  =     3.2253142213
  
  Lattice vectors:
  
 A1 = (   0.0000000000,   2.9217416777,   0.0000000000)
 A2 = (   0.0000000000,   0.0000000000,   4.5829667762)
 A3 = (   9.4235349840,   0.0000000000,   0.0000000000)


Analysis of symmetry for initial positions (statically):
=====================================================================
 Subroutine PRICEL returns:
 Original cell was already a primitive cell.
 

 Routine SETGRP: Setting up the symmetry group for a 
 simple orthorhombic supercell.


 Subroutine GETGRP returns: Found  8 space group operations
 (whereof  2 operations were pure point group operations)
 out of a pool of  8 trial point group operations.


The static configuration has the point symmetry S_2 .
 The point group associated with its full space group is D_2h.


Analysis of symmetry for dynamics (positions and initial velocities):
=====================================================================
 Subroutine PRICEL returns:
 Original cell was already a primitive cell.
 

 Routine SETGRP: Setting up the symmetry group for a 
 simple orthorhombic supercell.


 Subroutine GETGRP returns: Found  8 space group operations
 (whereof  2 operations were pure point group operations)
 out of a pool of  8 trial point group operations.


The dynamic configuration has the point symmetry S_2 .
 The point group associated with its full space group is D_2h.


Analysis of magnetic symmetry:
=====================================================================

 Subroutine MAGSYM returns: Found  8 space group operations
 (whereof  2 operations were pure point group operations)
 out of a pool of  8 trial space group operations
 (whereof  2 operations were pure point group operations)
 and found also     1 'primitive' translations


The magnetic configuration has the point symmetry S_2 .
 The point group associated with its full space group is D_2h.


 irot  :   1
 --------------------------------------------------------------------
 isymop:   1   0   0
           0   1   0
           0   0   1

 gtrans:     0.0000000     0.0000000     0.0000000

 ptrans:     0.0000000     0.0000000     0.0000000
 rotmap:
 (   1->   1)  (   2->   2)  (   3->   3)  (   4->   4)  (   5->   5) 
 (   6->   6)  (   7->   7)  (   8->   8)  (   9->   9)  (  10->  10) 
 (  11->  11)  (  12->  12) 


 irot  :   2
 --------------------------------------------------------------------
 isymop:  -1   0   0
           0  -1   0
           0   0  -1

 gtrans:     0.0000000     0.0000000     0.0000000

 ptrans:     0.0000000     0.0000000     0.0000000
 rotmap:
 (   1->   3)  (   2->   4)  (   3->   1)  (   4->   2)  (   5->   7) 
 (   6->   8)  (   7->   5)  (   8->   6)  (   9->  11)  (  10->  12) 
 (  11->   9)  (  12->  10) 


 irot  :   3
 --------------------------------------------------------------------
 isymop:  -1   0   0
           0  -1   0
           0   0   1

 gtrans:     0.5000000     0.5000000     0.5000000

 ptrans:     0.0000000     0.0000000     0.0000000
 rotmap:
 (   1->   2)  (   2->   1)  (   3->   4)  (   4->   3)  (   5->   6) 
 (   6->   5)  (   7->   8)  (   8->   7)  (   9->  10)  (  10->   9) 
 (  11->  12)  (  12->  11) 


 irot  :   4
 --------------------------------------------------------------------
 isymop:   1   0   0
           0   1   0
           0   0  -1

 gtrans:     0.5000000     0.5000000     0.5000000

 ptrans:     0.0000000     0.0000000     0.0000000
 rotmap:
 (   1->   4)  (   2->   3)  (   3->   2)  (   4->   1)  (   5->   8) 
 (   6->   7)  (   7->   6)  (   8->   5)  (   9->  12)  (  10->  11) 
 (  11->  10)  (  12->   9) 


 irot  :   5
 --------------------------------------------------------------------
 isymop:  -1   0   0
           0   1   0
           0   0  -1

 gtrans:     0.0000000     0.5000000     0.5000000

 ptrans:     0.0000000     0.0000000     0.0000000
 rotmap:
 (   1->   4)  (   2->   3)  (   3->   2)  (   4->   1)  (   5->   8) 
 (   6->   7)  (   7->   6)  (   8->   5)  (   9->  12)  (  10->  11) 
 (  11->  10)  (  12->   9) 


 irot  :   6
 --------------------------------------------------------------------
 isymop:   1   0   0
           0  -1   0
           0   0   1

 gtrans:     0.0000000     0.5000000     0.5000000

 ptrans:     0.0000000     0.0000000     0.0000000
 rotmap:
 (   1->   2)  (   2->   1)  (   3->   4)  (   4->   3)  (   5->   6) 
 (   6->   5)  (   7->   8)  (   8->   7)  (   9->  10)  (  10->   9) 
 (  11->  12)  (  12->  11) 


 irot  :   7
 --------------------------------------------------------------------
 isymop:   1   0   0
           0  -1   0
           0   0  -1

 gtrans:     0.5000000     0.0000000     0.0000000

 ptrans:     0.0000000     0.0000000     0.0000000
 rotmap:
 (   1->   3)  (   2->   4)  (   3->   1)  (   4->   2)  (   5->   7) 
 (   6->   8)  (   7->   5)  (   8->   6)  (   9->  11)  (  10->  12) 
 (  11->   9)  (  12->  10) 


 irot  :   8
 --------------------------------------------------------------------
 isymop:  -1   0   0
           0   1   0
           0   0   1

 gtrans:     0.5000000     0.0000000     0.0000000

 ptrans:     0.0000000     0.0000000     0.0000000
 rotmap:
 (   1->   1)  (   2->   2)  (   3->   3)  (   4->   4)  (   5->   5) 
 (   6->   6)  (   7->   7)  (   8->   8)  (   9->   9)  (  10->  10) 
 (  11->  11)  (  12->  12) 
 
 
 KPOINTS: con0.5                                  

Automatic generation of k-mesh.
Space group operators:
 irot       det(A)        alpha          n_x          n_y          n_z        tau_x        tau_y        tau_z
    1     1.000000     0.000000     1.000000     0.000000     0.000000     0.000000     0.000000     0.000000
    2    -1.000000     0.000000     1.000000     0.000000     0.000000     0.000000     0.000000     0.000000
    3     1.000000   180.000000     1.000000     0.000000     0.000000     0.500000     0.500000     0.500000
    4    -1.000000   180.000000     1.000000     0.000000     0.000000     0.500000     0.500000     0.500000
    5     1.000000   180.000000     0.000000     0.000000     1.000000     0.000000     0.500000     0.500000
    6    -1.000000   180.000000     0.000000     0.000000     1.000000     0.000000     0.500000     0.500000
    7     1.000000   180.000000     0.000000     1.000000     0.000000     0.500000     0.000000     0.000000
    8    -1.000000   180.000000     0.000000     1.000000     0.000000     0.500000     0.000000     0.000000
 
 Subroutine IBZKPT returns following result:
 ===========================================
 
 Found     24 irreducible k-points:
 
 Following reciprocal coordinates:
            Coordinates               Weight
  0.000000  0.000000  0.000000      1.000000
  0.166667  0.000000  0.000000      2.000000
  0.333333  0.000000  0.000000      2.000000
  0.500000  0.000000  0.000000      1.000000
  0.000000  0.250000  0.000000      2.000000
  0.166667  0.250000  0.000000      4.000000
  0.333333  0.250000  0.000000      4.000000
  0.500000  0.250000  0.000000      2.000000
  0.000000  0.500000  0.000000      1.000000
  0.166667  0.500000  0.000000      2.000000
  0.333333  0.500000  0.000000      2.000000
  0.500000  0.500000  0.000000      1.000000
  0.000000  0.000000  0.500000      1.000000
  0.166667  0.000000  0.500000      2.000000
  0.333333  0.000000  0.500000      2.000000
  0.500000  0.000000  0.500000      1.000000
  0.000000  0.250000  0.500000      2.000000
  0.166667  0.250000  0.500000      4.000000
  0.333333  0.250000  0.500000      4.000000
  0.500000  0.250000  0.500000      2.000000
  0.000000  0.500000  0.500000      1.000000
  0.166667  0.500000  0.500000      2.000000
  0.333333  0.500000  0.500000      2.000000
  0.500000  0.500000  0.500000      1.000000
 
 Following cartesian coordinates:
            Coordinates               Weight
  0.000000  0.000000  0.000000      1.000000
  0.000000  0.057044  0.000000      2.000000
  0.000000  0.114087  0.000000      2.000000
  0.000000  0.171131  0.000000      1.000000
  0.000000  0.000000  0.054550      2.000000
  0.000000  0.057044  0.054550      4.000000
  0.000000  0.114087  0.054550      4.000000
  0.000000  0.171131  0.054550      2.000000
  0.000000  0.000000  0.109100      1.000000
  0.000000  0.057044  0.109100      2.000000
  0.000000  0.114087  0.109100      2.000000
  0.000000  0.171131  0.109100      1.000000
  0.053059  0.000000  0.000000      1.000000
  0.053059  0.057044  0.000000      2.000000
  0.053059  0.114087  0.000000      2.000000
  0.053059  0.171131  0.000000      1.000000
  0.053059  0.000000  0.054550      2.000000
  0.053059  0.057044  0.054550      4.000000
  0.053059  0.114087  0.054550      4.000000
  0.053059  0.171131  0.054550      2.000000
  0.053059  0.000000  0.109100      1.000000
  0.053059  0.057044  0.109100      2.000000
  0.053059  0.114087  0.109100      2.000000
  0.053059  0.171131  0.109100      1.000000
 
 TETIRR: Found    144 inequivalent tetrahedra from      288


--------------------------------------------------------------------------------------------------------




 Dimension of arrays:
   k-points           NKPTS =     24   k-points in BZ     NKDIM =     24   number of bands    NBANDS=     48
   number of dos      NEDOS =    301   number of ions     NIONS =     12
   non local maximal  LDIM  =      6   non local SUM 2l+1 LMDIM =     18
   total plane-waves  NPLWV =  24192
   max r-space proj   IRMAX =      1   max aug-charges    IRDMAX=   7247
   dimension x,y,z NGX =    16 NGY =   28 NGZ =   54
   dimension x,y,z NGXF=    32 NGYF=   56 NGZF=  108
   support grid    NGXF=    32 NGYF=   56 NGZF=  108
   ions per type =               4   8
 NGX,Y,Z   is equivalent  to a cutoff of   9.10, 10.16,  9.53 a.u.
 NGXF,Y,Z  is equivalent  to a cutoff of  18.21, 20.31, 19.05 a.u.


 I would recommend the setting:
   dimension x,y,z NGX =    16 NGY =   26 NGZ =   53
 SYSTEM =  unknown system                          
 POSCAR =                                          

 Startparameter for this run:
   NWRITE =      1    write-flag & timer
   PREC   = normal    normal or accurate (medium, high low for compatibility)
   ISTART =      1    job   : 0-new  1-cont  2-samecut
   ICHARG =     11    charge: 1-file 2-atom 10-const
   ISPIN  =      2    spin polarized calculation?
   LNONCOLLINEAR =      F non collinear calculations
   LSORBIT =      F    spin-orbit coupling
   INIWAV =      1    electr: 0-lowe 1-rand  2-diag
   LASPH  =      F    aspherical Exc in radial PAW
   METAGGA=      F    non-selfconsistent MetaGGA calc.

 Electronic Relaxation 1
   ENCUT  =  520.0 eV  38.22 Ry    6.18 a.u.   5.43  8.52 17.52*2*pi/ulx,y,z
   ENINI  =  520.0     initial cutoff
   ENAUG  =  605.4 eV  augmentation charge cutoff
   NELM   =     60;   NELMIN=  5; NELMDL=  0     # of ELM steps 
   EDIFF  = 0.1E-04   stopping-criterion for ELM
   LREAL  =      F    real-space projection
   NLSPLINE    = F    spline interpolate recip. space projectors
   LCOMPAT=      F    compatible to vasp.4.4
   GGA_COMPAT  = T    GGA compatible to vasp.4.4-vasp.4.6
   LMAXPAW     = -100 max onsite density
   LMAXMIX     =    4 max onsite mixed and CHGCAR
   VOSKOWN=      1    Vosko Wilk Nusair interpolation
   ROPT   =    0.00000   0.00000
 Ionic relaxation
   EDIFFG = -.2E-01   stopping-criterion for IOM
   NSW    =      0    number of steps for IOM
   NBLOCK =      1;   KBLOCK =      1    inner block; outer block 
   IBRION =     -1    ionic relax: 0-MD 1-quasi-New 2-CG
   NFREE  =      0    steps in history (QN), initial steepest desc. (CG)
   ISIF   =      2    stress and relaxation
   IWAVPR =     10    prediction:  0-non 1-charg 2-wave 3-comb
   ISYM   =      2    0-nonsym 1-usesym 2-fastsym
   LCORR  =      T    Harris-Foulkes like correction to forces

   POTIM  = 0.5000    time-step for ionic-motion
   TEIN   =    0.0    initial temperature
   TEBEG  =    0.0;   TEEND  =   0.0 temperature during run
   SMASS  =  -3.00    Nose mass-parameter (am)
   estimated Nose-frequenzy (Omega)   =  0.10E-29 period in steps =****** mass=  -0.195E-27a.u.
   SCALEE = 1.0000    scale energy and forces
   NPACO  =    256;   APACO  = 16.0  distance and # of slots for P.C.
   PSTRESS=    0.0 pullay stress

  Mass of Ions in am
   POMASS =  54.94 16.00
  Ionic Valenz
   ZVAL   =   7.00  6.00
  Atomic Wigner-Seitz radii
   RWIGS  =  -1.00 -1.00
  virtual crystal weights 
   VCA    =   1.00  1.00
   NELECT =      76.0000    total number of electrons
   NUPDOWN=      -1.0000    fix difference up-down

 DOS related values:
   EMIN   =  10.00;   EMAX   =-10.00  energy-range for DOS
   EFERMI =   0.00
   ISMEAR =    -5;   SIGMA  =   0.20  broadening in eV -4-tet -1-fermi 0-gaus

 Electronic relaxation 2 (details)
   IALGO  =     38    algorithm
   LDIAG  =      T    sub-space diagonalisation (order eigenvalues)
   LSUBROT=      T    optimize rotation matrix (better conditioning)
   TURBO    =      0    0=normal 1=particle mesh
   IRESTART =      0    0=no restart 2=restart with 2 vectors
   NREBOOT  =      0    no. of reboots
   NMIN     =      0    reboot dimension
   EREF     =   0.00    reference energy to select bands
   IMIX   =      4    mixing-type and parameters
     AMIX     =   0.40;   BMIX     =  1.00
     AMIX_MAG =   1.60;   BMIX_MAG =  1.00
     AMIN     =   0.10
     WC   =   100.;   INIMIX=   1;  MIXPRE=   1;  MAXMIX= -45

 Intra band minimization:
   WEIMIN = 0.0000     energy-eigenvalue tresh-hold
   EBREAK =  0.52E-07  absolut break condition
   DEPER  =   0.30     relativ break condition  

   TIME   =   0.40     timestep for ELM

  volume/ion in A,a.u.               =      10.52        70.96
  Fermi-wavevector in a.u.,A,eV,Ry     =   1.382543  2.612627 26.006509  1.911424
  Thomas-Fermi vector in A             =   2.507224
 
 Write flags
   LWAVE  =      T    write WAVECAR
   LCHARG =      T    write CHGCAR
   LVTOT  =      F    write LOCPOT, total local potential
   LVHAR  =      F    write LOCPOT, Hartree potential only
   LELF   =      F    write electronic localiz. function (ELF)
   LORBIT =     11    0 simple, 1 ext, 2 COOP (PROOUT)


 Dipole corrections
   LMONO  =      F    monopole corrections only (constant potential shift)
   LDIPOL =      F    correct potential (dipole corrections)
   IDIPOL =      0    1-x, 2-y, 3-z, 4-all directions 
   EPSILON=  1.0000000 bulk dielectric constant

 LDA+U is selected, type is set to LDAUTYPE =  2
   angular momentum for each species LDAUL =     2   -1
   U (eV)           for each species LDAUU =   3.9  0.0
   J (eV)           for each species LDAUJ =   0.0  0.0
 Exchange correlation treatment:
   GGA     =    --    GGA type
   LEXCH   =     8    internal setting for exchange type
   VOSKOWN=      1    Vosko Wilk Nusair interpolation
   LHFCALC =     F    Hartree Fock is set to
   LHFONE  =     F    Hartree Fock one center treatment
   AEXX    =    0.0000 exact exchange contribution

 Linear response parameters
   LEPSILON=     F    determine dielectric tensor
   LRPA    =     F    only Hartree local field effects (RPA)
   LNABLA  =     F    use nabla operator in PAW spheres
   LVEL    =     F    velocity operator in full k-point grid
   LINTERFAST=   F  fast interpolation
   KINTER  =     0    interpolate to denser k-point grid
   CSHIFT  =0.1000    complex shift for real part using Kramers Kronig
   OMEGAMAX=  -1.0    maximum frequency
   DEG_THRESHOLD= 0.2000000E-02 threshold for treating states as degnerate
   RTIME   =    0.100 relaxation time in fs

 Orbital magnetization related:
   ORBITALMAG=     F  switch on orbital magnetization
   LCHIMAG   =     F  perturbation theory with respect to B field
   DQ        =  0.001000  dq finite difference perturbation B field



--------------------------------------------------------------------------------------------------------


 Static calculation
 charge density and potential remain constant during run
 spin polarized calculation
 Variant of blocked Davidson
 Davidson routine will perform the subspace rotation
 perform sub-space diagonalisation
    after iterative eigenvector-optimisation
 no mixing
 using additional bands           10
 reciprocal scheme for non local part
 use partial core corrections
 calculate Harris-corrections to forces 
   (improved forces if not selfconsistent)
 use gradient corrections 
 WARNING: stress and forces are not correct
  (second derivative of E(xc) not defined)
 use of overlap-Matrix (Vanderbilt PP)
 Fermi weights with tetrahedron method with Bloechl corrections


--------------------------------------------------------------------------------------------------------


  energy-cutoff  :      520.00
  volume of cell :      126.18
      direct lattice vectors                 reciprocal lattice vectors
     0.000000000  2.921741678  0.000000000     0.000000000  0.342261606  0.000000000
     0.000000000  0.000000000  4.582966776     0.000000000  0.000000000  0.218199269
     9.423534984  0.000000000  0.000000000     0.106117291  0.000000000  0.000000000

  length of vectors
     2.921741678  4.582966776  9.423534984     0.342261606  0.218199269  0.106117291


 
 old parameters found on file WAVECAR:
  energy-cutoff  :      520.00
  volume of cell :      126.18
      direct lattice vectors                 reciprocal lattice vectors
     0.000000000  2.921741678  0.000000000     0.000000000  0.342261606  0.000000000
     0.000000000  0.000000000  4.582966776     0.000000000  0.000000000  0.218199269
     9.423534984  0.000000000  0.000000000     0.106117291  0.000000000  0.000000000

  length of vectors

 
 k-points in units of 2pi/SCALE and weight: con0.5                                  
   0.00000000  0.00000000  0.00000000       0.021
   0.00000000  0.05704360  0.00000000       0.042
   0.00000000  0.11408720  0.00000000       0.042
   0.00000000  0.17113080  0.00000000       0.021
   0.00000000  0.00000000  0.05454982       0.042
   0.00000000  0.05704360  0.05454982       0.083
   0.00000000  0.11408720  0.05454982       0.083
   0.00000000  0.17113080  0.05454982       0.042
   0.00000000  0.00000000  0.10909963       0.021
   0.00000000  0.05704360  0.10909963       0.042
   0.00000000  0.11408720  0.10909963       0.042
   0.00000000  0.17113080  0.10909963       0.021
   0.05305865  0.00000000  0.00000000       0.021
   0.05305865  0.05704360  0.00000000       0.042
   0.05305865  0.11408720  0.00000000       0.042
   0.05305865  0.17113080  0.00000000       0.021
   0.05305865  0.00000000  0.05454982       0.042
   0.05305865  0.05704360  0.05454982       0.083
   0.05305865  0.11408720  0.05454982       0.083
   0.05305865  0.17113080  0.05454982       0.042
   0.05305865  0.00000000  0.10909963       0.021
   0.05305865  0.05704360  0.10909963       0.042
   0.05305865  0.11408720  0.10909963       0.042
   0.05305865  0.17113080  0.10909963       0.021
 
 k-points in reciprocal lattice and weights: con0.5                                  
   0.00000000  0.00000000  0.00000000       0.021
   0.16666667  0.00000000  0.00000000       0.042
   0.33333333  0.00000000  0.00000000       0.042
   0.50000000  0.00000000  0.00000000       0.021
   0.00000000  0.25000000  0.00000000       0.042
   0.16666667  0.25000000  0.00000000       0.083
   0.33333333  0.25000000  0.00000000       0.083
   0.50000000  0.25000000  0.00000000       0.042
   0.00000000  0.50000000  0.00000000       0.021
   0.16666667  0.50000000  0.00000000       0.042
   0.33333333  0.50000000  0.00000000       0.042
   0.50000000  0.50000000  0.00000000       0.021
   0.00000000  0.00000000  0.50000000       0.021
   0.16666667  0.00000000  0.50000000       0.042
   0.33333333  0.00000000  0.50000000       0.042
   0.50000000  0.00000000  0.50000000       0.021
   0.00000000  0.25000000  0.50000000       0.042
   0.16666667  0.25000000  0.50000000       0.083
   0.33333333  0.25000000  0.50000000       0.083
   0.50000000  0.25000000  0.50000000       0.042
   0.00000000  0.50000000  0.50000000       0.021
   0.16666667  0.50000000  0.50000000       0.042
   0.33333333  0.50000000  0.50000000       0.042
   0.50000000  0.50000000  0.50000000       0.021
 
 position of ions in fractional coordinates (direct lattice) 
   0.25000000  0.02127641  0.13510657
   0.25000000  0.47872359  0.63510657
   0.75000000  0.97872359  0.86489343
   0.75000000  0.52127641  0.36489343
   0.25000000  0.30995413  0.28336249
   0.25000000  0.19004587  0.78336249
   0.75000000  0.69004587  0.71663751
   0.75000000  0.80995413  0.21663751
   0.25000000  0.71205780  0.46291998
   0.25000000  0.78794220  0.96291998
   0.75000000  0.28794220  0.53708002
   0.75000000  0.21205780  0.03708002
 
 position of ions in cartesian coordinates  (Angst):
   1.27318150  0.73043542  0.09750907
   5.98494899  0.73043542  2.19397432
   8.15035348  2.19130626  4.48545771
   3.43858599  2.19130626  2.38899245
   2.67027638  0.73043542  1.42050948
   7.38204387  0.73043542  0.87097391
   6.75325861  2.19130626  3.16245730
   2.04149112  2.19130626  3.71199287
   4.36234258  0.73043542  3.26333725
   9.07411007  0.73043542  3.61111291
   5.06119240  2.19130626  1.31962952
   0.34942491  2.19130626  0.97185386
 


--------------------------------------------------------------------------------------------------------


 k-point  1 :   0.0000 0.0000 0.0000  plane waves:    3437
 k-point  2 :   0.1667 0.0000 0.0000  plane waves:    3407
 k-point  3 :   0.3333 0.0000 0.0000  plane waves:    3399
 k-point  4 :   0.5000 0.0000 0.0000  plane waves:    3382
 k-point  5 :   0.0000 0.2500 0.0000  plane waves:    3409
 k-point  6 :   0.1667 0.2500 0.0000  plane waves:    3422
 k-point  7 :   0.3333 0.2500 0.0000  plane waves:    3391
 k-point  8 :   0.5000 0.2500 0.0000  plane waves:    3382
 k-point  9 :   0.0000 0.5000 0.0000  plane waves:    3394
 k-point 10 :   0.1667 0.5000 0.0000  plane waves:    3406
 k-point 11 :   0.3333 0.5000 0.0000  plane waves:    3380
 k-point 12 :   0.5000 0.5000 0.0000  plane waves:    3376
 k-point 13 :   0.0000 0.0000 0.5000  plane waves:    3404
 k-point 14 :   0.1667 0.0000 0.5000  plane waves:    3394
 k-point 15 :   0.3333 0.0000 0.5000  plane waves:    3410
 k-point 16 :   0.5000 0.0000 0.5000  plane waves:    3388
 k-point 17 :   0.0000 0.2500 0.5000  plane waves:    3426
 k-point 18 :   0.1667 0.2500 0.5000  plane waves:    3406
 k-point 19 :   0.3333 0.2500 0.5000  plane waves:    3396
 k-point 20 :   0.5000 0.2500 0.5000  plane waves:    3372
 k-point 21 :   0.0000 0.5000 0.5000  plane waves:    3404
 k-point 22 :   0.1667 0.5000 0.5000  plane waves:    3392
 k-point 23 :   0.3333 0.5000 0.5000  plane waves:    3364
 k-point 24 :   0.5000 0.5000 0.5000  plane waves:    3360

 maximum and minimum number of plane-waves per node :       870      832

 maximum number of plane-waves:      3437
 maximum index in each direction: 
   IXMAX=    5   IYMAX=    8   IZMAX=   17
   IXMIN=   -5   IYMIN=   -9   IZMIN=  -18

 WARNING: aliasing errors must be expected set NGX to  22 to avoid them
 WARNING: aliasing errors must be expected set NGY to  36 to avoid them
 WARNING: aliasing errors must be expected set NGZ to  72 to avoid them
 aliasing errors are usually negligible using standard VASP settings
 and one can safely disregard these warnings

 parallel 3D FFT for wavefunctions:
    minimum data exchange during FFTs selected (reduces bandwidth)
 parallel 3D FFT for charge:
    minimum data exchange during FFTs selected (reduces bandwidth)


 total amount of memory used by VASP on root node    41777. kBytes
========================================================================

   base      :      30000. kBytes
   nonl-proj :       6137. kBytes
   fftplans  :        401. kBytes
   grid      :        981. kBytes
   one-center:         93. kBytes
   wavefun   :       4165. kBytes
 
 initial charge density was supplied:
 number of electron      76.0000009 magnetization      -0.0000000
 keeping initial charge density in first step


--------------------------------------------------------------------------------------------------------


 Maximum index for augmentation-charges          225 (set IRDMAX)


--------------------------------------------------------------------------------------------------------


 First call to EWALD:  gamma=   0.353
 Maximum number of real-space cells 4x 3x 2
 Maximum number of reciprocal cells 2x 3x 5

 FEWALD executed in parallel
    FEWALD:  cpu time    0.00: real time    0.00


----------------------------------------- Iteration    1(   1)  ---------------------------------------


    POTLOK:  cpu time    0.01: real time    0.01
    SETDIJ:  cpu time    0.01: real time    0.01
     EDDAV:  cpu time    1.06: real time    1.06
 BZINTS: Fermi energy:  2.950564; 76.000000 electrons
         Band energy:-305.296747;  BLOECHL correction:  0.000000
       DOS:  cpu time    0.00: real time    0.01
    --------------------------------------------
      LOOP:  cpu time    1.08: real time    1.14

 eigenvalue-minimisations  :  4856
 total energy-change (2. order) :-0.7373567E+02  (-0.9170369E+02)
 number of electron      76.0000009 magnetization      -0.0000000
 augmentation part       76.0000009 magnetization      -0.0000000

 Free energy of the ion-electron system (eV)
  ---------------------------------------------------
  alpha Z        PSCENC =       301.59653201
  Ewald energy   TEWEN  =     -4075.56072845
  -1/2 Hartree   DENC   =     -1372.20949180
  -exchange  EXHF       =         0.00000000
  -V(xc)+E(xc)   XCENC  =       186.56882893
  PAW double counting   =      6390.94297659    -6325.64780575
  entropy T*S    EENTRO =         0.00000000
  eigenvalues    EBANDS =      -305.29674725
  atomic energy  EATOM  =      5125.87076976
  ---------------------------------------------------
  free energy    TOTEN  =       -73.73566596 eV

  energy without entropy =      -73.73566596  energy(sigma->0) =      -73.73566596


--------------------------------------------------------------------------------------------------------




----------------------------------------- Iteration    1(   2)  ---------------------------------------


     EDDAV:  cpu time    1.35: real time    1.35
 BZINTS: Fermi energy:  2.089040; 76.000000 electrons
         Band energy:-315.849776;  BLOECHL correction:  0.000000
       DOS:  cpu time    0.00: real time    0.00
    --------------------------------------------
      LOOP:  cpu time    1.35: real time    1.45

 eigenvalue-minimisations  :  6816
 total energy-change (2. order) :-0.1055303E+02  (-0.1046091E+02)
 number of electron      76.0000009 magnetization      -0.0000000
 augmentation part       76.0000009 magnetization      -0.0000000

 Free energy of the ion-electron system (eV)
  ---------------------------------------------------
  alpha Z        PSCENC =       301.59653201
  Ewald energy   TEWEN  =     -4075.56072845
  -1/2 Hartree   DENC   =     -1372.20949180
  -exchange  EXHF       =         0.00000000
  -V(xc)+E(xc)   XCENC  =       186.56882893
  PAW double counting   =      6390.94297659    -6325.64780575
  entropy T*S    EENTRO =         0.00000000
  eigenvalues    EBANDS =      -315.84977602
  atomic energy  EATOM  =      5125.87076976
  ---------------------------------------------------
  free energy    TOTEN  =       -84.28869473 eV

  energy without entropy =      -84.28869473  energy(sigma->0) =      -84.28869473


--------------------------------------------------------------------------------------------------------




----------------------------------------- Iteration    1(   3)  ---------------------------------------


     EDDAV:  cpu time    1.37: real time    1.37
 BZINTS: Fermi energy:  2.078315; 76.000000 electrons
         Band energy:-316.132305;  BLOECHL correction:  0.000000
       DOS:  cpu time    0.00: real time    0.00
    --------------------------------------------
      LOOP:  cpu time    1.37: real time    1.56

 eigenvalue-minimisations  :  6952
 total energy-change (2. order) :-0.2825287E+00  (-0.2822466E+00)
 number of electron      76.0000009 magnetization      -0.0000000
 augmentation part       76.0000009 magnetization      -0.0000000

 Free energy of the ion-electron system (eV)
  ---------------------------------------------------
  alpha Z        PSCENC =       301.59653201
  Ewald energy   TEWEN  =     -4075.56072845
  -1/2 Hartree   DENC   =     -1372.20949180
  -exchange  EXHF       =         0.00000000
  -V(xc)+E(xc)   XCENC  =       186.56882893
  PAW double counting   =      6390.94297659    -6325.64780575
  entropy T*S    EENTRO =         0.00000000
  eigenvalues    EBANDS =      -316.13230471
  atomic energy  EATOM  =      5125.87076976
  ---------------------------------------------------
  free energy    TOTEN  =       -84.57122342 eV

  energy without entropy =      -84.57122342  energy(sigma->0) =      -84.57122342


--------------------------------------------------------------------------------------------------------




----------------------------------------- Iteration    1(   4)  ---------------------------------------


     EDDAV:  cpu time    1.38: real time    1.38
 BZINTS: Fermi energy:  2.071986; 76.000000 electrons
         Band energy:-316.140840;  BLOECHL correction:  0.000000
       DOS:  cpu time    0.00: real time    0.00
    --------------------------------------------
      LOOP:  cpu time    1.39: real time    1.48

 eigenvalue-minimisations  :  7032
 total energy-change (2. order) :-0.8535083E-02  (-0.8532017E-02)
 number of electron      76.0000009 magnetization      -0.0000000
 augmentation part       76.0000009 magnetization      -0.0000000

 Free energy of the ion-electron system (eV)
  ---------------------------------------------------
  alpha Z        PSCENC =       301.59653201
  Ewald energy   TEWEN  =     -4075.56072845
  -1/2 Hartree   DENC   =     -1372.20949180
  -exchange  EXHF       =         0.00000000
  -V(xc)+E(xc)   XCENC  =       186.56882893
  PAW double counting   =      6390.94297659    -6325.64780575
  entropy T*S    EENTRO =         0.00000000
  eigenvalues    EBANDS =      -316.14083979
  atomic energy  EATOM  =      5125.87076976
  ---------------------------------------------------
  free energy    TOTEN  =       -84.57975850 eV

  energy without entropy =      -84.57975850  energy(sigma->0) =      -84.57975850


--------------------------------------------------------------------------------------------------------




----------------------------------------- Iteration    1(   5)  ---------------------------------------


     EDDAV:  cpu time    1.30: real time    1.30
 BZINTS: Fermi energy:  2.069737; 76.000000 electrons
         Band energy:-316.141152;  BLOECHL correction:  0.000000
       DOS:  cpu time    0.00: real time    0.00
    --------------------------------------------
      LOOP:  cpu time    1.31: real time    1.40

 eigenvalue-minimisations  :  6512
 total energy-change (2. order) :-0.3121625E-03  (-0.3121484E-03)
 number of electron      76.0000009 magnetization      -0.0000000
 augmentation part       76.0000009 magnetization      -0.0000000

 Free energy of the ion-electron system (eV)
  ---------------------------------------------------
  alpha Z        PSCENC =       301.59653201
  Ewald energy   TEWEN  =     -4075.56072845
  -1/2 Hartree   DENC   =     -1372.20949180
  -exchange  EXHF       =         0.00000000
  -V(xc)+E(xc)   XCENC  =       186.56882893
  PAW double counting   =      6390.94297659    -6325.64780575
  entropy T*S    EENTRO =         0.00000000
  eigenvalues    EBANDS =      -316.14115195
  atomic energy  EATOM  =      5125.87076976
  ---------------------------------------------------
  free energy    TOTEN  =       -84.58007067 eV

  energy without entropy =      -84.58007067  energy(sigma->0) =      -84.58007067


--------------------------------------------------------------------------------------------------------




----------------------------------------- Iteration    1(   6)  ---------------------------------------


     EDDAV:  cpu time    1.16: real time    1.16
 BZINTS: Fermi energy:  2.068868; 76.000000 electrons
         Band energy:-316.141167;  BLOECHL correction:  0.000000
       DOS:  cpu time    0.00: real time    0.00
    --------------------------------------------
      LOOP:  cpu time    1.16: real time    1.26

 eigenvalue-minimisations  :  5456
 total energy-change (2. order) :-0.1532941E-04  (-0.1532908E-04)
 number of electron      76.0000009 magnetization      -0.0000000
 augmentation part       76.0000009 magnetization      -0.0000000

 Free energy of the ion-electron system (eV)
  ---------------------------------------------------
  alpha Z        PSCENC =       301.59653201
  Ewald energy   TEWEN  =     -4075.56072845
  -1/2 Hartree   DENC   =     -1372.20949180
  -exchange  EXHF       =         0.00000000
  -V(xc)+E(xc)   XCENC  =       186.56882893
  PAW double counting   =      6390.94297659    -6325.64780575
  entropy T*S    EENTRO =         0.00000000
  eigenvalues    EBANDS =      -316.14116728
  atomic energy  EATOM  =      5125.87076976
  ---------------------------------------------------
  free energy    TOTEN  =       -84.58008600 eV

  energy without entropy =      -84.58008600  energy(sigma->0) =      -84.58008600


--------------------------------------------------------------------------------------------------------




----------------------------------------- Iteration    1(   7)  ---------------------------------------


     EDDAV:  cpu time    0.92: real time    0.92
 BZINTS: Fermi energy:  2.068530; 76.000000 electrons
         Band energy:-316.141168;  BLOECHL correction:  0.000000
       DOS:  cpu time    0.00: real time    0.00
    --------------------------------------------
      LOOP:  cpu time    0.92: real time    1.03

 eigenvalue-minimisations  :  3832
 total energy-change (2. order) :-0.6168577E-06  (-0.6168280E-06)
 number of electron      76.0000009 magnetization      -0.0000000
 augmentation part       76.0000009 magnetization      -0.0000000

 Free energy of the ion-electron system (eV)
  ---------------------------------------------------
  alpha Z        PSCENC =       301.59653201
  Ewald energy   TEWEN  =     -4075.56072845
  -1/2 Hartree   DENC   =     -1372.20949180
  -exchange  EXHF       =         0.00000000
  -V(xc)+E(xc)   XCENC  =       186.56882893
  PAW double counting   =      6390.94297659    -6325.64780575
  entropy T*S    EENTRO =         0.00000000
  eigenvalues    EBANDS =      -316.14116790
  atomic energy  EATOM  =      5125.87076976
  ---------------------------------------------------
  free energy    TOTEN  =       -84.58008661 eV

  energy without entropy =      -84.58008661  energy(sigma->0) =      -84.58008661


--------------------------------------------------------------------------------------------------------




 average (electrostatic) potential at core
  the test charge radii are     1.0210  0.7215
  (the norm of the test charge is              1.0000)
       1 -48.5139       2 -48.5139       3 -48.5139       4 -48.5139       5 -72.2272
       6 -72.2272       7 -72.2272       8 -72.2272       9 -72.6083      10 -72.6083
      11 -72.6083      12 -72.6083
 
 
 
 E-fermi :   2.0685     XC(G=0): -10.9653     alpha+bet :-10.1080


 spin component 1

 k-point   1 :       0.0000    0.0000    0.0000
  band No.  band energies     occupation 
      1     -16.7359      1.00000
      2     -16.2034      1.00000
      3     -15.8202      1.00000
      4     -15.1147      1.00000
      5     -14.8583      1.00000
      6     -14.7963      1.00000
      7     -14.6979      1.00000
      8     -14.5925      1.00000
      9      -4.7334      1.00000
     10      -4.3555      1.00000
     11      -3.7637      1.00000
     12      -3.3818      1.00000
     13      -3.2714      1.00000
     14      -3.0103      1.00000
     15      -2.9079      1.00000
     16      -2.8820      1.00000
     17      -2.3244      1.00000
     18      -2.2854      1.00000
     19      -2.1234      1.00000
     20      -1.8262      1.00000
     21      -1.8009      1.00000
     22      -1.5413      1.00000
     23      -1.2456      1.00000
     24      -0.7601      1.00000
     25      -0.5883      1.00000
     26      -0.5764      1.00000
     27      -0.3911      1.00000
     28      -0.1199      1.00000
     29       0.0517      1.00000
     30       0.5660      1.00000
     31       0.6162      1.00000
     32       0.6494      1.00000
     33       0.9322      1.00000
     34       1.2158      1.00000
     35       1.3611      1.00000
     36       1.5691      1.00000
     37       1.8027      1.00000
     38       2.0541      1.00000
     39       3.5399      0.00000
     40       3.9922      0.00000
     41       4.3336      0.00000
     42       4.4379      0.00000
     43       4.8889      0.00000
     44       4.9333      0.00000
     45       5.5316      0.00000
     46       5.5429      0.00000
     47       5.7356      0.00000
     48       5.9148      0.00000

 k-point   2 :       0.1667    0.0000    0.0000
  band No.  band energies     occupation 
      1     -16.5090      1.00000
      2     -16.0271      1.00000
      3     -15.6487      1.00000
      4     -15.0731      1.00000
      5     -14.8645      1.00000
      6     -14.8247      1.00000
      7     -14.7222      1.00000
      8     -14.6489      1.00000
      9      -4.3844      1.00000
     10      -4.0304      1.00000
     11      -3.6763      1.00000
     12      -3.5276      1.00000
     13      -3.2071      1.00000
     14      -3.0685      1.00000
     15      -2.9826      1.00000
     16      -2.6533      1.00000
     17      -2.5656      1.00000
     18      -2.2256      1.00000
     19      -2.1698      1.00000
     20      -2.0135      1.00000
     21      -1.7441      1.00000
     22      -1.5900      1.00000
     23      -1.3175      1.00000
     24      -0.9122      1.00000
     25      -0.7883      1.00000
     26      -0.6759      1.00000
     27      -0.3361      1.00000
     28      -0.1549      1.00000
     29      -0.1279      1.00000
     30       0.0187      1.00000
     31       0.1426      1.00000
     32       0.8120      1.00000
     33       0.9702      1.00000
     34       1.0440      1.00000
     35       1.2847      1.00000
     36       1.5316      1.00000
     37       1.8055      1.00000
     38       1.8308      1.00000
     39       3.5418      0.00000
     40       3.9415      0.00000
     41       4.0939      0.00000
     42       4.1014      0.00000
     43       5.2109      0.00000
     44       5.3277      0.00000
     45       5.4431      0.00000
     46       5.5079      0.00000
     47       5.6580      0.00000
     48       5.8593      0.00000

 k-point   3 :       0.3333    0.0000    0.0000
  band No.  band energies     occupation 
      1     -15.9553      1.00000
      2     -15.6097      1.00000
      3     -15.2777      1.00000
      4     -15.1040      1.00000
      5     -14.9112      1.00000
      6     -14.8700      1.00000
      7     -14.7826      1.00000
      8     -14.7503      1.00000
      9      -4.1112      1.00000
     10      -3.9720      1.00000
     11      -3.4737      1.00000
     12      -3.2591      1.00000
     13      -3.0574      1.00000
     14      -3.0303      1.00000
     15      -2.7194      1.00000
     16      -2.6539      1.00000
     17      -2.5479      1.00000
     18      -2.4768      1.00000
     19      -2.3230      1.00000
     20      -2.0957      1.00000
     21      -1.8740      1.00000
     22      -1.5771      1.00000
     23      -1.3349      1.00000
     24      -1.2270      1.00000
     25      -0.9709      1.00000
     26      -0.9082      1.00000
     27      -0.7691      1.00000
     28      -0.2739      1.00000
     29      -0.2024      1.00000
     30      -0.0842      1.00000
     31      -0.0297      1.00000
     32       0.4146      1.00000
     33       0.4988      1.00000
     34       0.7965      1.00000
     35       0.9415      1.00000
     36       1.3101      1.00000
     37       1.3806      1.00000
     38       1.6578      1.00000
     39       3.5426      0.00000
     40       3.6015      0.00000
     41       3.8453      0.00000
     42       4.0520      0.00000
     43       5.2219      0.00000
     44       5.3437      0.00000
     45       5.4470      0.00000
     46       5.6284      0.00000
     47       5.7005      0.00000
     48       5.7457      0.00000

 k-point   4 :       0.5000    0.0000    0.0000
  band No.  band energies     occupation 
      1     -15.4198      1.00000
      2     -15.4198      1.00000
      3     -15.1790      1.00000
      4     -15.1790      1.00000
      5     -14.9245      1.00000
      6     -14.9245      1.00000
      7     -14.8263      1.00000
      8     -14.8263      1.00000
      9      -4.3203      1.00000
     10      -4.3203      1.00000
     11      -3.3512      1.00000
     12      -3.3512      1.00000
     13      -2.9520      1.00000
     14      -2.9520      1.00000
     15      -2.4111      1.00000
     16      -2.4111      1.00000
     17      -2.3067      1.00000
     18      -2.3067      1.00000
     19      -2.1652      1.00000
     20      -2.1652      1.00000
     21      -1.6598      1.00000
     22      -1.6598      1.00000
     23      -1.2473      1.00000
     24      -1.2473      1.00000
     25      -1.0122      1.00000
     26      -1.0122      1.00000
     27      -0.7133      1.00000
     28      -0.7133      1.00000
     29      -0.3349      1.00000
     30      -0.3349      1.00000
     31      -0.0137      1.00000
     32      -0.0137      1.00000
     33       0.1891      1.00000
     34       0.1891      1.00000
     35       1.0538      1.00000
     36       1.0538      1.00000
     37       1.3827      1.00000
     38       1.3827      1.00000
     39       3.6148      0.00000
     40       3.6148      0.00000
     41       3.9362      0.00000
     42       3.9362      0.00000
     43       5.1877      0.00000
     44       5.1877      0.00000
     45       5.3964      0.00000
     46       5.3965      0.00000
     47       5.7130      0.00000
     48       5.7132      0.00000

 k-point   5 :       0.0000    0.2500    0.0000
  band No.  band energies     occupation 
      1     -16.6146      1.00000
      2     -16.2038      1.00000
      3     -15.7111      1.00000
      4     -15.2048      1.00000
      5     -14.8827      1.00000
      6     -14.8517      1.00000
      7     -14.7426      1.00000
      8     -14.6835      1.00000
      9      -4.7172      1.00000
     10      -4.2810      1.00000
     11      -3.6957      1.00000
     12      -3.4021      1.00000
     13      -3.2631      1.00000
     14      -3.0493      1.00000
     15      -2.9087      1.00000
     16      -2.8213      1.00000
     17      -2.3370      1.00000
     18      -2.1730      1.00000
     19      -2.1615      1.00000
     20      -1.9414      1.00000
     21      -1.7010      1.00000
     22      -1.3617      1.00000
     23      -1.3458      1.00000
     24      -0.8940      1.00000
     25      -0.7450      1.00000
     26      -0.3163      1.00000
     27      -0.1796      1.00000
     28       0.0721      1.00000
     29       0.2278      1.00000
     30       0.5170      1.00000
     31       0.5214      1.00000
     32       0.6780      1.00000
     33       0.7492      1.00000
     34       1.1070      1.00000
     35       1.2449      1.00000
     36       1.3893      1.00000
     37       1.6670      1.00000
     38       1.9155      1.00000
     39       3.4156      0.00000
     40       4.0741      0.00000
     41       4.3415      0.00000
     42       4.4112      0.00000
     43       4.9728      0.00000
     44       5.0093      0.00000
     45       5.4793      0.00000
     46       5.5832      0.00000
     47       5.7313      0.00000
     48       5.9723      0.00000

 k-point   6 :       0.1667    0.2500    0.0000
  band No.  band energies     occupation 
      1     -16.3992      1.00000
      2     -16.0219      1.00000
      3     -15.5526      1.00000
      4     -15.1365      1.00000
      5     -14.8986      1.00000
      6     -14.8596      1.00000
      7     -14.7678      1.00000
      8     -14.7358      1.00000
      9      -4.3833      1.00000
     10      -3.9707      1.00000
     11      -3.7270      1.00000
     12      -3.5231      1.00000
     13      -3.2139      1.00000
     14      -3.0934      1.00000
     15      -2.9922      1.00000
     16      -2.6403      1.00000
     17      -2.5674      1.00000
     18      -2.2576      1.00000
     19      -2.1653      1.00000
     20      -1.9976      1.00000
     21      -1.7147      1.00000
     22      -1.4641      1.00000
     23      -1.2846      1.00000
     24      -0.9732      1.00000
     25      -0.7839      1.00000
     26      -0.5497      1.00000
     27      -0.3651      1.00000
     28      -0.0900      1.00000
     29       0.0148      1.00000
     30       0.1508      1.00000
     31       0.2787      1.00000
     32       0.6560      1.00000
     33       0.6719      1.00000
     34       1.0403      1.00000
     35       1.2783      1.00000
     36       1.4936      1.00000
     37       1.6959      1.00000
     38       1.7457      1.00000
     39       3.5129      0.00000
     40       3.9650      0.00000
     41       4.0668      0.00000
     42       4.1488      0.00000
     43       5.1890      0.00000
     44       5.3349      0.00000
     45       5.4716      0.00000
     46       5.5245      0.00000
     47       5.6670      0.00000
     48       5.8808      0.00000

 k-point   7 :       0.3333    0.2500    0.0000
  band No.  band energies     occupation 
      1     -15.8832      1.00000
      2     -15.5927      1.00000
      3     -15.2380      1.00000
      4     -15.1017      1.00000
      5     -14.9320      1.00000
      6     -14.8697      1.00000
      7     -14.8440      1.00000
      8     -14.8045      1.00000
      9      -4.1922      1.00000
     10      -4.0226      1.00000
     11      -3.4930      1.00000
     12      -3.3084      1.00000
     13      -3.1594      1.00000
     14      -2.9519      1.00000
     15      -2.7824      1.00000
     16      -2.6873      1.00000
     17      -2.5087      1.00000
     18      -2.4216      1.00000
     19      -2.3127      1.00000
     20      -2.1828      1.00000
     21      -2.0084      1.00000
     22      -1.5456      1.00000
     23      -1.3438      1.00000
     24      -1.2235      1.00000
     25      -1.0358      1.00000
     26      -0.7512      1.00000
     27      -0.5533      1.00000
     28      -0.4498      1.00000
     29      -0.1801      1.00000
     30      -0.0310      1.00000
     31       0.0787      1.00000
     32       0.3799      1.00000
     33       0.6988      1.00000
     34       0.8558      1.00000
     35       0.9358      1.00000
     36       1.3177      1.00000
     37       1.4890      1.00000
     38       1.6337      1.00000
     39       3.4986      0.00000
     40       3.6843      0.00000
     41       3.9119      0.00000
     42       4.0792      0.00000
     43       5.1999      0.00000
     44       5.3194      0.00000
     45       5.3692      0.00000
     46       5.6222      0.00000
     47       5.6627      0.00000
     48       5.7778      0.00000

 k-point   8 :       0.5000    0.2500    0.0000
  band No.  band energies     occupation 
      1     -15.4033      1.00000
      2     -15.4033      1.00000
      3     -15.1697      1.00000
      4     -15.1697      1.00000
      5     -14.9205      1.00000
      6     -14.9205      1.00000
      7     -14.8455      1.00000
      8     -14.8455      1.00000
      9      -4.3779      1.00000
     10      -4.3779      1.00000
     11      -3.3188      1.00000
     12      -3.3188      1.00000
     13      -3.0499      1.00000
     14      -3.0499      1.00000
     15      -2.6274      1.00000
     16      -2.6274      1.00000
     17      -2.3006      1.00000
     18      -2.3006      1.00000
     19      -2.1919      1.00000
     20      -2.1919      1.00000
     21      -1.5908      1.00000
     22      -1.5908      1.00000
     23      -1.2838      1.00000
     24      -1.2838      1.00000
     25      -0.9799      1.00000
     26      -0.9799      1.00000
     27      -0.7884      1.00000
     28      -0.7884      1.00000
     29      -0.4047      1.00000
     30      -0.4047      1.00000
     31       0.1723      1.00000
     32       0.1723      1.00000
     33       0.4218      1.00000
     34       0.4218      1.00000
     35       1.2311      1.00000
     36       1.2311      1.00000
     37       1.3853      1.00000
     38       1.3853      1.00000
     39       3.6010      0.00000
     40       3.6010      0.00000
     41       4.0647      0.00000
     42       4.0647      0.00000
     43       5.1600      0.00000
     44       5.1600      0.00000
     45       5.3969      0.00000
     46       5.3969      0.00000
     47       5.6630      0.00000
     48       5.6630      0.00000

 k-point   9 :       0.0000    0.5000    0.0000
  band No.  band energies     occupation 
      1     -16.4184      1.00000
      2     -16.2705      1.00000
      3     -15.4807      1.00000
      4     -15.4205      1.00000
      5     -14.9678      1.00000
      6     -14.8719      1.00000
      7     -14.7734      1.00000
      8     -14.7660      1.00000
      9      -4.6730      1.00000
     10      -4.3276      1.00000
     11      -3.5021      1.00000
     12      -3.3282      1.00000
     13      -3.2547      1.00000
     14      -3.1882      1.00000
     15      -2.9343      1.00000
     16      -2.7681      1.00000
     17      -2.3559      1.00000
     18      -2.1754      1.00000
     19      -2.1309      1.00000
     20      -1.9285      1.00000
     21      -1.5949      1.00000
     22      -1.4788      1.00000
     23      -1.0394      1.00000
     24      -0.8484      1.00000
     25      -0.7766      1.00000
     26      -0.5188      1.00000
     27       0.0793      1.00000
     28       0.1203      1.00000
     29       0.3276      1.00000
     30       0.3760      1.00000
     31       0.5788      1.00000
     32       0.8200      1.00000
     33       0.9140      1.00000
     34       0.9155      1.00000
     35       0.9403      1.00000
     36       1.0018      1.00000
     37       1.4488      1.00000
     38       1.9896      1.00000
     39       3.3564      0.00000
     40       4.0981      0.00000
     41       4.2824      0.00000
     42       4.4558      0.00000
     43       5.0777      0.00000
     44       5.1018      0.00000
     45       5.4393      0.00000
     46       5.6059      0.00000
     47       5.7133      0.00000
     48       6.0039      0.00000

 k-point  10 :       0.1667    0.5000    0.0000
  band No.  band energies     occupation 
      1     -16.2307      1.00000
      2     -16.0655      1.00000
      3     -15.3682      1.00000
      4     -15.2848      1.00000
      5     -14.9857      1.00000
      6     -14.8762      1.00000
      7     -14.8187      1.00000
      8     -14.7946      1.00000
      9      -4.3558      1.00000
     10      -4.0623      1.00000
     11      -3.6096      1.00000
     12      -3.5488      1.00000
     13      -3.2252      1.00000
     14      -3.0925      1.00000
     15      -3.0171      1.00000
     16      -2.6803      1.00000
     17      -2.4352      1.00000
     18      -2.3726      1.00000
     19      -2.1052      1.00000
     20      -2.0307      1.00000
     21      -1.7550      1.00000
     22      -1.2894      1.00000
     23      -1.2038      1.00000
     24      -1.1426      1.00000
     25      -0.6377      1.00000
     26      -0.4964      1.00000
     27      -0.1321      1.00000
     28      -0.0893      1.00000
     29       0.0603      1.00000
     30       0.1575      1.00000
     31       0.4402      1.00000
     32       0.5547      1.00000
     33       0.6855      1.00000
     34       0.7865      1.00000
     35       1.1079      1.00000
     36       1.3012      1.00000
     37       1.5444      1.00000
     38       1.8784      1.00000
     39       3.5626      0.00000
     40       3.9870      0.00000
     41       4.0461      0.00000
     42       4.1339      0.00000
     43       5.1679      0.00000
     44       5.3584      0.00000
     45       5.4750      0.00000
     46       5.5325      0.00000
     47       5.7116      0.00000
     48       5.9158      0.00000

 k-point  11 :       0.3333    0.5000    0.0000
  band No.  band energies     occupation 
      1     -15.7898      1.00000
      2     -15.5860      1.00000
      3     -15.2206      1.00000
      4     -15.0214      1.00000
      5     -14.9869      1.00000
      6     -14.9398      1.00000
      7     -14.8813      1.00000
      8     -14.8449      1.00000
      9      -4.2568      1.00000
     10      -4.0766      1.00000
     11      -3.4827      1.00000
     12      -3.4566      1.00000
     13      -3.0696      1.00000
     14      -2.9706      1.00000
     15      -2.8496      1.00000
     16      -2.7484      1.00000
     17      -2.6076      1.00000
     18      -2.2714      1.00000
     19      -2.2612      1.00000
     20      -2.2137      1.00000
     21      -2.0500      1.00000
     22      -1.6226      1.00000
     23      -1.3294      1.00000
     24      -1.2069      1.00000
     25      -1.0563      1.00000
     26      -0.8600      1.00000
     27      -0.5270      1.00000
     28      -0.2864      1.00000
     29      -0.2156      1.00000
     30       0.0307      1.00000
     31       0.1951      1.00000
     32       0.5231      1.00000
     33       0.8398      1.00000
     34       0.8848      1.00000
     35       1.0528      1.00000
     36       1.1725      1.00000
     37       1.5367      1.00000
     38       1.6477      1.00000
     39       3.4423      0.00000
     40       3.7431      0.00000
     41       4.0148      0.00000
     42       4.1098      0.00000
     43       5.1797      0.00000
     44       5.2885      0.00000
     45       5.2968      0.00000
     46       5.6081      0.00000
     47       5.6845      0.00000
     48       5.7272      0.00000

 k-point  12 :       0.5000    0.5000    0.0000
  band No.  band energies     occupation 
      1     -15.3864      1.00000
      2     -15.3864      1.00000
      3     -15.1591      1.00000
      4     -15.1591      1.00000
      5     -14.9148      1.00000
      6     -14.9148      1.00000
      7     -14.8683      1.00000
      8     -14.8683      1.00000
      9      -4.4327      1.00000
     10      -4.4327      1.00000
     11      -3.2868      1.00000
     12      -3.2868      1.00000
     13      -3.1186      1.00000
     14      -3.1186      1.00000
     15      -2.8347      1.00000
     16      -2.8347      1.00000
     17      -2.3003      1.00000
     18      -2.3003      1.00000
     19      -2.2177      1.00000
     20      -2.2177      1.00000
     21      -1.5423      1.00000
     22      -1.5423      1.00000
     23      -1.2565      1.00000
     24      -1.2565      1.00000
     25      -0.9683      1.00000
     26      -0.9683      1.00000
     27      -0.8321      1.00000
     28      -0.8321      1.00000
     29      -0.5426      1.00000
     30      -0.5426      1.00000
     31       0.3674      1.00000
     32       0.3674      1.00000
     33       0.6435      1.00000
     34       0.6435      1.00000
     35       1.3249      1.00000
     36       1.3249      1.00000
     37       1.4588      1.00000
     38       1.4588      1.00000
     39       3.6437      0.00000
     40       3.6437      0.00000
     41       4.1332      0.00000
     42       4.1332      0.00000
     43       5.1316      0.00000
     44       5.1316      0.00000
     45       5.3964      0.00000
     46       5.3964      0.00000
     47       5.5991      0.00000
     48       5.5991      0.00000

 k-point  13 :       0.0000    0.0000    0.5000
  band No.  band energies     occupation 
      1     -16.6104      1.00000
      2     -16.4850      1.00000
      3     -15.4124      1.00000
      4     -15.3934      1.00000
      5     -14.8354      1.00000
      6     -14.7917      1.00000
      7     -14.7005      1.00000
      8     -14.5919      1.00000
      9      -4.6148      1.00000
     10      -4.3893      1.00000
     11      -3.7679      1.00000
     12      -3.3393      1.00000
     13      -3.2710      1.00000
     14      -3.1754      1.00000
     15      -3.0673      1.00000
     16      -2.8797      1.00000
     17      -2.3134      1.00000
     18      -2.1815      1.00000
     19      -2.1429      1.00000
     20      -1.7959      1.00000
     21      -1.6570      1.00000
     22      -1.4127      1.00000
     23      -1.3967      1.00000
     24      -1.1158      1.00000
     25      -0.7043      1.00000
     26      -0.6047      1.00000
     27      -0.0094      1.00000
     28       0.0008      1.00000
     29       0.3136      1.00000
     30       0.3662      1.00000
     31       0.7801      1.00000
     32       0.9655      1.00000
     33       0.9759      1.00000
     34       1.1432      1.00000
     35       1.2435      1.00000
     36       1.3113      1.00000
     37       1.7490      1.00000
     38       1.7666      1.00000
     39       3.5780      0.00000
     40       4.0841      0.00000
     41       4.3386      0.00000
     42       4.4212      0.00000
     43       4.8934      0.00000
     44       4.9553      0.00000
     45       5.5062      0.00000
     46       5.5870      0.00000
     47       5.7197      0.00000
     48       5.9230      0.00000

 k-point  14 :       0.1667    0.0000    0.5000
  band No.  band energies     occupation 
      1     -16.4041      1.00000
      2     -16.2633      1.00000
      3     -15.2978      1.00000
      4     -15.2974      1.00000
      5     -14.8793      1.00000
      6     -14.8047      1.00000
      7     -14.7240      1.00000
      8     -14.6486      1.00000
      9      -4.2750      1.00000
     10      -4.0721      1.00000
     11      -3.6722      1.00000
     12      -3.5295      1.00000
     13      -3.2832      1.00000
     14      -3.1553      1.00000
     15      -2.9564      1.00000
     16      -2.7081      1.00000
     17      -2.5179      1.00000
     18      -2.3611      1.00000
     19      -2.0578      1.00000
     20      -1.9641      1.00000
     21      -1.6736      1.00000
     22      -1.5422      1.00000
     23      -1.1148      1.00000
     24      -1.1088      1.00000
     25      -0.8713      1.00000
     26      -0.6827      1.00000
     27      -0.4899      1.00000
     28      -0.4311      1.00000
     29      -0.0315      1.00000
     30       0.1954      1.00000
     31       0.4951      1.00000
     32       0.7695      1.00000
     33       0.9424      1.00000
     34       1.0504      1.00000
     35       1.4181      1.00000
     36       1.4902      1.00000
     37       1.6701      1.00000
     38       1.7587      1.00000
     39       3.5574      0.00000
     40       3.9714      0.00000
     41       3.9857      0.00000
     42       4.1080      0.00000
     43       5.2265      0.00000
     44       5.3413      0.00000
     45       5.4194      0.00000
     46       5.5280      0.00000
     47       5.6522      0.00000
     48       5.8424      0.00000

 k-point  15 :       0.3333    0.0000    0.5000
  band No.  band energies     occupation 
      1     -15.9055      1.00000
      2     -15.7252      1.00000
      3     -15.1796      1.00000
      4     -15.0683      1.00000
      5     -14.9516      1.00000
      6     -14.8988      1.00000
      7     -14.7782      1.00000
      8     -14.7539      1.00000
      9      -4.0814      1.00000
     10      -4.0128      1.00000
     11      -3.4379      1.00000
     12      -3.3192      1.00000
     13      -3.0402      1.00000
     14      -3.0067      1.00000
     15      -2.8633      1.00000
     16      -2.6527      1.00000
     17      -2.4533      1.00000
     18      -2.4150      1.00000
     19      -2.2081      1.00000
     20      -2.0888      1.00000
     21      -1.8318      1.00000
     22      -1.5575      1.00000
     23      -1.5396      1.00000
     24      -1.2771      1.00000
     25      -0.9556      1.00000
     26      -0.9097      1.00000
     27      -0.7439      1.00000
     28      -0.4709      1.00000
     29      -0.2709      1.00000
     30      -0.0060      1.00000
     31       0.0176      1.00000
     32       0.4298      1.00000
     33       0.7454      1.00000
     34       0.7676      1.00000
     35       0.9523      1.00000
     36       1.2475      1.00000
     37       1.4617      1.00000
     38       1.5963      1.00000
     39       3.5027      0.00000
     40       3.5792      0.00000
     41       3.8287      0.00000
     42       4.0765      0.00000
     43       5.2112      0.00000
     44       5.3508      0.00000
     45       5.3952      0.00000
     46       5.6461      0.00000
     47       5.7084      0.00000
     48       5.7260      0.00000

 k-point  16 :       0.5000    0.0000    0.5000
  band No.  band energies     occupation 
      1     -15.4145      1.00000
      2     -15.4145      1.00000
      3     -15.1944      1.00000
      4     -15.1944      1.00000
      5     -14.8909      1.00000
      6     -14.8909      1.00000
      7     -14.8498      1.00000
      8     -14.8498      1.00000
      9      -4.2877      1.00000
     10      -4.2877      1.00000
     11      -3.4176      1.00000
     12      -3.4176      1.00000
     13      -2.9088      1.00000
     14      -2.9088      1.00000
     15      -2.5757      1.00000
     16      -2.5757      1.00000
     17      -2.3755      1.00000
     18      -2.3755      1.00000
     19      -1.9604      1.00000
     20      -1.9604      1.00000
     21      -1.5525      1.00000
     22      -1.5525      1.00000
     23      -1.2148      1.00000
     24      -1.2148      1.00000
     25      -1.0393      1.00000
     26      -1.0393      1.00000
     27      -0.7570      1.00000
     28      -0.7570      1.00000
     29      -0.3675      1.00000
     30      -0.3675      1.00000
     31      -0.0746      1.00000
     32      -0.0746      1.00000
     33       0.2589      1.00000
     34       0.2589      1.00000
     35       0.9494      1.00000
     36       0.9494      1.00000
     37       1.4508      1.00000
     38       1.4508      1.00000
     39       3.5628      0.00000
     40       3.5628      0.00000
     41       4.0305      0.00000
     42       4.0305      0.00000
     43       5.1974      0.00000
     44       5.1974      0.00000
     45       5.3636      0.00000
     46       5.3636      0.00000
     47       5.7066      0.00000
     48       5.7066      0.00000

 k-point  17 :       0.0000    0.2500    0.5000
  band No.  band energies     occupation 
      1     -16.5226      1.00000
      2     -16.3885      1.00000
      3     -15.4307      1.00000
      4     -15.4014      1.00000
      5     -14.8957      1.00000
      6     -14.8292      1.00000
      7     -14.7447      1.00000
      8     -14.6832      1.00000
      9      -4.6611      1.00000
     10      -4.2935      1.00000
     11      -3.7089      1.00000
     12      -3.5049      1.00000
     13      -3.2619      1.00000
     14      -3.0264      1.00000
     15      -2.9064      1.00000
     16      -2.7879      1.00000
     17      -2.3509      1.00000
     18      -2.2973      1.00000
     19      -2.1492      1.00000
     20      -1.7722      1.00000
     21      -1.7410      1.00000
     22      -1.3046      1.00000
     23      -1.2662      1.00000
     24      -0.8491      1.00000
     25      -0.8139      1.00000
     26      -0.5585      1.00000
     27      -0.1481      1.00000
     28       0.1368      1.00000
     29       0.2981      1.00000
     30       0.3590      1.00000
     31       0.5241      1.00000
     32       0.8158      1.00000
     33       0.9007      1.00000
     34       1.0651      1.00000
     35       1.1359      1.00000
     36       1.4197      1.00000
     37       1.6082      1.00000
     38       1.9359      1.00000
     39       3.4929      0.00000
     40       3.9704      0.00000
     41       4.2948      0.00000
     42       4.4305      0.00000
     43       4.9745      0.00000
     44       5.0505      0.00000
     45       5.5085      0.00000
     46       5.5846      0.00000
     47       5.7031      0.00000
     48       5.9808      0.00000

 k-point  18 :       0.1667    0.2500    0.5000
  band No.  band energies     occupation 
      1     -16.3245      1.00000
      2     -16.1743      1.00000
      3     -15.3239      1.00000
      4     -15.2834      1.00000
      5     -14.9255      1.00000
      6     -14.8359      1.00000
      7     -14.7694      1.00000
      8     -14.7353      1.00000
      9      -4.3357      1.00000
     10      -3.9822      1.00000
     11      -3.7279      1.00000
     12      -3.5043      1.00000
     13      -3.3706      1.00000
     14      -3.0751      1.00000
     15      -2.9816      1.00000
     16      -2.6199      1.00000
     17      -2.4664      1.00000
     18      -2.3507      1.00000
     19      -2.1470      1.00000
     20      -2.0344      1.00000
     21      -1.6290      1.00000
     22      -1.3921      1.00000
     23      -1.1790      1.00000
     24      -1.0997      1.00000
     25      -0.7706      1.00000
     26      -0.6572      1.00000
     27      -0.4009      1.00000
     28      -0.2281      1.00000
     29      -0.0123      1.00000
     30       0.2334      1.00000
     31       0.4718      1.00000
     32       0.6202      1.00000
     33       0.7218      1.00000
     34       1.1684      1.00000
     35       1.2073      1.00000
     36       1.3753      1.00000
     37       1.5890      1.00000
     38       1.8443      1.00000
     39       3.5094      0.00000
     40       3.9139      0.00000
     41       4.1013      0.00000
     42       4.1840      0.00000
     43       5.2083      0.00000
     44       5.3231      0.00000
     45       5.4668      0.00000
     46       5.5412      0.00000
     47       5.6273      0.00000
     48       5.8718      0.00000

 k-point  19 :       0.3333    0.2500    0.5000
  band No.  band energies     occupation 
      1     -15.8518      1.00000
      2     -15.6622      1.00000
      3     -15.1958      1.00000
      4     -15.0488      1.00000
      5     -14.9652      1.00000
      6     -14.9079      1.00000
      7     -14.8285      1.00000
      8     -14.8057      1.00000
      9      -4.1775      1.00000
     10      -4.0383      1.00000
     11      -3.4921      1.00000
     12      -3.3082      1.00000
     13      -3.1075      1.00000
     14      -3.0515      1.00000
     15      -2.8553      1.00000
     16      -2.6311      1.00000
     17      -2.4893      1.00000
     18      -2.3577      1.00000
     19      -2.3416      1.00000
     20      -2.0355      1.00000
     21      -1.8889      1.00000
     22      -1.7547      1.00000
     23      -1.5427      1.00000
     24      -1.2976      1.00000
     25      -0.8593      1.00000
     26      -0.6381      1.00000
     27      -0.5730      1.00000
     28      -0.4410      1.00000
     29      -0.2357      1.00000
     30       0.0404      1.00000
     31       0.0887      1.00000
     32       0.3701      1.00000
     33       0.5138      1.00000
     34       0.8604      1.00000
     35       1.0406      1.00000
     36       1.3298      1.00000
     37       1.5331      1.00000
     38       1.5954      1.00000
     39       3.4242      0.00000
     40       3.7384      0.00000
     41       3.9188      0.00000
     42       4.0963      0.00000
     43       5.1975      0.00000
     44       5.3035      0.00000
     45       5.3517      0.00000
     46       5.6339      0.00000
     47       5.6648      0.00000
     48       5.7444      0.00000

 k-point  20 :       0.5000    0.2500    0.5000
  band No.  band energies     occupation 
      1     -15.4006      1.00000
      2     -15.4006      1.00000
      3     -15.1780      1.00000
      4     -15.1780      1.00000
      5     -14.8997      1.00000
      6     -14.8997      1.00000
      7     -14.8606      1.00000
      8     -14.8606      1.00000
      9      -4.3553      1.00000
     10      -4.3553      1.00000
     11      -3.4423      1.00000
     12      -3.4423      1.00000
     13      -2.9725      1.00000
     14      -2.9725      1.00000
     15      -2.5367      1.00000
     16      -2.5367      1.00000
     17      -2.3888      1.00000
     18      -2.3888      1.00000
     19      -2.1330      1.00000
     20      -2.1330      1.00000
     21      -1.6267      1.00000
     22      -1.6267      1.00000
     23      -1.3090      1.00000
     24      -1.3090      1.00000
     25      -0.9952      1.00000
     26      -0.9952      1.00000
     27      -0.7701      1.00000
     28      -0.7701      1.00000
     29      -0.3592      1.00000
     30      -0.3592      1.00000
     31       0.1377      1.00000
     32       0.1377      1.00000
     33       0.4475      1.00000
     34       0.4475      1.00000
     35       1.1755      1.00000
     36       1.1755      1.00000
     37       1.4254      1.00000
     38       1.4254      1.00000
     39       3.6312      0.00000
     40       3.6312      0.00000
     41       4.0174      0.00000
     42       4.0174      0.00000
     43       5.1832      0.00000
     44       5.1832      0.00000
     45       5.3890      0.00000
     46       5.3890      0.00000
     47       5.6697      0.00000
     48       5.6697      0.00000

 k-point  21 :       0.0000    0.5000    0.5000
  band No.  band energies     occupation 
      1     -16.4181      1.00000
      2     -16.2695      1.00000
      3     -15.4903      1.00000
      4     -15.4153      1.00000
      5     -14.9656      1.00000
      6     -14.8689      1.00000
      7     -14.7729      1.00000
      8     -14.7685      1.00000
      9      -4.7108      1.00000
     10      -4.2527      1.00000
     11      -3.6113      1.00000
     12      -3.5379      1.00000
     13      -3.2525      1.00000
     14      -2.9325      1.00000
     15      -2.9164      1.00000
     16      -2.5495      1.00000
     17      -2.4017      1.00000
     18      -2.3758      1.00000
     19      -2.1391      1.00000
     20      -1.7722      1.00000
     21      -1.5984      1.00000
     22      -1.2500      1.00000
     23      -1.1290      1.00000
     24      -0.9830      1.00000
     25      -0.7721      1.00000
     26      -0.4338      1.00000
     27      -0.2121      1.00000
     28      -0.1498      1.00000
     29       0.1073      1.00000
     30       0.5687      1.00000
     31       0.6022      1.00000
     32       0.7460      1.00000
     33       0.8594      1.00000
     34       0.9450      1.00000
     35       0.9649      1.00000
     36       1.4334      1.00000
     37       1.6700      1.00000
     38       1.8896      1.00000
     39       3.3977      0.00000
     40       3.9143      0.00000
     41       4.3259      0.00000
     42       4.3605      0.00000
     43       5.0808      0.00000
     44       5.1636      0.00000
     45       5.5392      0.00000
     46       5.5607      0.00000
     47       5.6542      0.00000
     48       6.0222      0.00000

 k-point  22 :       0.1667    0.5000    0.5000
  band No.  band energies     occupation 
      1     -16.2303      1.00000
      2     -16.0647      1.00000
      3     -15.3741      1.00000
      4     -15.2823      1.00000
      5     -14.9855      1.00000
      6     -14.8739      1.00000
      7     -14.8185      1.00000
      8     -14.7946      1.00000
      9      -4.3985      1.00000
     10      -3.9668      1.00000
     11      -3.5909      1.00000
     12      -3.5366      1.00000
     13      -3.4678      1.00000
     14      -3.1139      1.00000
     15      -2.8543      1.00000
     16      -2.6946      1.00000
     17      -2.3743      1.00000
     18      -2.3361      1.00000
     19      -2.1904      1.00000
     20      -2.0705      1.00000
     21      -1.6075      1.00000
     22      -1.2606      1.00000
     23      -1.1716      1.00000
     24      -0.9850      1.00000
     25      -0.8394      1.00000
     26      -0.5427      1.00000
     27      -0.3119      1.00000
     28      -0.0328      1.00000
     29       0.0197      1.00000
     30       0.1134      1.00000
     31       0.3975      1.00000
     32       0.6129      1.00000
     33       0.7408      1.00000
     34       0.7475      1.00000
     35       1.1866      1.00000
     36       1.2740      1.00000
     37       1.6708      1.00000
     38       1.8343      1.00000
     39       3.5152      0.00000
     40       3.8662      0.00000
     41       4.1786      0.00000
     42       4.2143      0.00000
     43       5.1860      0.00000
     44       5.3306      0.00000
     45       5.4944      0.00000
     46       5.5732      0.00000
     47       5.5878      0.00000
     48       5.9082      0.00000

 k-point  23 :       0.3333    0.5000    0.5000
  band No.  band energies     occupation 
      1     -15.7898      1.00000
      2     -15.5855      1.00000
      3     -15.2206      1.00000
      4     -15.0240      1.00000
      5     -14.9862      1.00000
      6     -14.9393      1.00000
      7     -14.8849      1.00000
      8     -14.8399      1.00000
      9      -4.2541      1.00000
     10      -4.0686      1.00000
     11      -3.5737      1.00000
     12      -3.2154      1.00000
     13      -3.2153      1.00000
     14      -3.1041      1.00000
     15      -2.7903      1.00000
     16      -2.7570      1.00000
     17      -2.4797      1.00000
     18      -2.3381      1.00000
     19      -2.1816      1.00000
     20      -2.0956      1.00000
     21      -2.0108      1.00000
     22      -1.9662      1.00000
     23      -1.5644      1.00000
     24      -1.2902      1.00000
     25      -0.7175      1.00000
     26      -0.5715      1.00000
     27      -0.3775      1.00000
     28      -0.2448      1.00000
     29      -0.2145      1.00000
     30       0.0271      1.00000
     31       0.0838      1.00000
     32       0.3976      1.00000
     33       0.4334      1.00000
     34       1.0547      1.00000
     35       1.0556      1.00000
     36       1.1816      1.00000
     37       1.5861      1.00000
     38       1.6149      1.00000
     39       3.5699      0.00000
     40       3.7521      0.00000
     41       3.9928      0.00000
     42       4.0770      0.00000
     43       5.1843      0.00000
     44       5.2679      0.00000
     45       5.2931      0.00000
     46       5.6193      0.00000
     47       5.6919      0.00000
     48       5.6972      0.00000

 k-point  24 :       0.5000    0.5000    0.5000
  band No.  band energies     occupation 
      1     -15.3861      1.00000
      2     -15.3861      1.00000
      3     -15.1602      1.00000
      4     -15.1602      1.00000
      5     -14.9092      1.00000
      6     -14.9092      1.00000
      7     -14.8727      1.00000
      8     -14.8727      1.00000
      9      -4.4207      1.00000
     10      -4.4207      1.00000
     11      -3.5065      1.00000
     12      -3.5065      1.00000
     13      -2.8460      1.00000
     14      -2.8460      1.00000
     15      -2.6859      1.00000
     16      -2.6859      1.00000
     17      -2.4360      1.00000
     18      -2.4360      1.00000
     19      -2.1943      1.00000
     20      -2.1943      1.00000
     21      -1.7562      1.00000
     22      -1.7562      1.00000
     23      -1.3286      1.00000
     24      -1.3286      1.00000
     25      -0.9406      1.00000
     26      -0.9406      1.00000
     27      -0.7958      1.00000
     28      -0.7958      1.00000
     29      -0.3581      1.00000
     30      -0.3581      1.00000
     31       0.2777      1.00000
[...]
     40       3.7521      0.00000
     41       3.9928      0.00000
     42       4.0770      0.00000
     43       5.1843      0.00000
     44       5.2679      0.00000
     45       5.2931      0.00000
     46       5.6193      0.00000
     47       5.6919      0.00000
     48       5.6973      0.00000

 k-point  24 :       0.5000    0.5000    0.5000
  band No.  band energies     occupation 
      1     -15.3861      1.00000
      2     -15.3861      1.00000
      3     -15.1602      1.00000
      4     -15.1602      1.00000
      5     -14.9092      1.00000
      6     -14.9092      1.00000
      7     -14.8727      1.00000
      8     -14.8727      1.00000
      9      -4.4207      1.00000
     10      -4.4207      1.00000
     11      -3.5065      1.00000
     12      -3.5065      1.00000
     13      -2.8460      1.00000
     14      -2.8460      1.00000
     15      -2.6859      1.00000
     16      -2.6859      1.00000
     17      -2.4360      1.00000
     18      -2.4360      1.00000
     19      -2.1943      1.00000
     20      -2.1943      1.00000
     21      -1.7562      1.00000
     22      -1.7562      1.00000
     23      -1.3286      1.00000
     24      -1.3286      1.00000
     25      -0.9406      1.00000
     26      -0.9406      1.00000
     27      -0.7958      1.00000
     28      -0.7958      1.00000
     29      -0.3581      1.00000
     30      -0.3581      1.00000
     31       0.2777      1.00000
     32       0.2777      1.00000
     33       0.7027      1.00000
     34       0.7027      1.00000
     35       1.3710      1.00000
     36       1.3710      1.00000
     37       1.4006      1.00000
     38       1.4006      1.00000
     39       3.6715      0.00000
     40       3.6715      0.00000
     41       4.0178      0.00000
     42       4.0178      0.00000
     43       5.1753      0.00000
     44       5.1753      0.00000
     45       5.4093      0.00000
     46       5.4093      0.00000
     47       5.6093      0.00000
     48       5.6093      0.00000


--------------------------------------------------------------------------------------------------------


 soft charge-density along one line, spin component           1
         0         1         2         3         4         5         6         7         8         9
 total charge-density along one line
 
 soft charge-density along one line, spin component           2
         0         1         2         3         4         5         6         7         8         9
 total charge-density along one line
 
 pseudopotential strength for first ion, spin component:           1
-10.052  -0.848  -0.000   0.000  -0.000 -10.577  -0.868  -0.000
 -0.848  -9.928   0.000   0.000  -0.000  -0.868 -10.452   0.000
 -0.000   0.000 -10.761   0.203   0.119  -0.000   0.000 -11.305
  0.000   0.000   0.203  -9.697   0.758   0.000   0.000   0.207
 -0.000  -0.000   0.119   0.758 -10.353  -0.000  -0.000   0.123
-10.577  -0.868  -0.000   0.000  -0.000 -11.084  -0.893  -0.000
 -0.868 -10.452   0.000   0.000  -0.000  -0.893 -10.957   0.000
 -0.000   0.000 -11.305   0.207   0.123  -0.000   0.000 -11.835
  0.000   0.000   0.207 -10.215   0.776   0.000   0.000   0.213
 -0.000  -0.000   0.123   0.776 -10.885  -0.000  -0.000   0.127
 -0.000  -0.000  -0.005  -0.002  -0.003  -0.000  -0.000  -0.005
 -0.000  -0.000  -0.010  -0.003  -0.006  -0.000  -0.000  -0.010
 -0.007  -0.001   0.000   0.000  -0.000  -0.007  -0.001  -0.000
  0.000   0.000  -0.000  -0.004   0.000   0.000   0.000  -0.000
  0.000   0.000   0.006  -0.001  -0.008  -0.000   0.000   0.006
 -0.008  -0.002  -0.000   0.000  -0.000  -0.008  -0.002  -0.000
  0.000   0.000  -0.000  -0.004   0.001   0.000   0.000  -0.000
  0.000   0.000   0.007  -0.001  -0.009   0.000   0.000   0.007
 pseudopotential strength for first ion, spin component:           2
 -6.186   0.631  -0.000   0.000  -0.000  -6.688   0.639  -0.000
  0.631  -6.221  -0.000   0.000  -0.000   0.639  -6.724  -0.000
 -0.000  -0.000  -5.591  -0.173  -0.069  -0.000  -0.000  -6.086
  0.000   0.000  -0.173  -6.288  -0.567   0.000   0.000  -0.176
 -0.000  -0.000  -0.069  -0.567  -5.938  -0.000  -0.000  -0.069
 -6.688   0.639  -0.000   0.000  -0.000  -7.157   0.650  -0.000
  0.639  -6.724  -0.000   0.000  -0.000   0.650  -7.195  -0.000
 -0.000  -0.000  -6.086  -0.176  -0.069  -0.000  -0.000  -6.547
  0.000   0.000  -0.176  -6.792  -0.574   0.000   0.000  -0.179
 -0.000  -0.000  -0.069  -0.574  -6.436  -0.000  -0.000  -0.069
 -0.000  -0.000  -0.016   0.000  -0.005  -0.000  -0.000  -0.016
 -0.000  -0.000  -0.031   0.000  -0.010  -0.000  -0.000  -0.031
 -0.004   0.003   0.000   0.000  -0.000  -0.004   0.003  -0.000
  0.000   0.000  -0.001  -0.007  -0.002   0.000   0.000  -0.001
  0.000   0.000   0.000  -0.001  -0.003  -0.000   0.000   0.000
 -0.004   0.004  -0.000   0.000  -0.000  -0.004   0.004  -0.000
  0.000   0.000  -0.002  -0.008  -0.003   0.000   0.000  -0.002
  0.000   0.000  -0.000  -0.001  -0.003   0.000   0.000  -0.000
 total augmentation occupancy for first ion, spin component:           1
  1.200   0.000   0.000   0.000   0.000   0.000   0.000   0.000   0.000   0.000   0.000   0.000   0.000   0.000   0.000   0.000
  0.000   1.200   0.000   0.000   0.000   0.000   0.000   0.000   0.000   0.000   0.000   0.000   0.000   0.000   0.000   0.000
  0.000   0.000   1.200   0.000   0.000   0.000   0.000   0.000   0.000   0.000   0.000   0.000   0.000   0.000   0.000   0.000
  0.000   0.000   0.000   1.200   0.000   0.000   0.000   0.000   0.000   0.000   0.000   0.000   0.000   0.000   0.000   0.000
  0.000   0.000   0.000   0.000   1.200   0.000   0.000   0.000   0.000   0.000   0.000   0.000   0.000   0.000   0.000   0.000
  0.000   0.000   0.000   0.000   0.000   0.000   0.000   0.000   0.000   0.000   0.000   0.000   0.000   0.000   0.000   0.000
  0.000   0.000   0.000   0.000   0.000   0.000   0.000   0.000   0.000   0.000   0.000   0.000   0.000   0.000   0.000   0.000
  0.000   0.000   0.000   0.000   0.000   0.000   0.000   0.000   0.000   0.000   0.000   0.000   0.000   0.000   0.000   0.000
  0.000   0.000   0.000   0.000   0.000   0.000   0.000   0.000   0.000   0.000   0.000   0.000   0.000   0.000   0.000   0.000
  0.000   0.000   0.000   0.000   0.000   0.000   0.000   0.000   0.000   0.000   0.000   0.000   0.000   0.000   0.000   0.000
  0.000   0.000   0.000   0.000   0.000   0.000   0.000   0.000   0.000   0.000   1.000   0.000   0.000   0.000   0.000   0.000
  0.000   0.000   0.000   0.000   0.000   0.000   0.000   0.000   0.000   0.000   0.000   0.000   0.000   0.000   0.000   0.000
  0.000   0.000   0.000   0.000   0.000   0.000   0.000   0.000   0.000   0.000   0.000   0.000   0.000   0.000   0.000   0.000
  0.000   0.000   0.000   0.000   0.000   0.000   0.000   0.000   0.000   0.000   0.000   0.000   0.000   0.000   0.000   0.000
  0.000   0.000   0.000   0.000   0.000   0.000   0.000   0.000   0.000   0.000   0.000   0.000   0.000   0.000   0.000   0.000
  0.000   0.000   0.000   0.000   0.000   0.000   0.000   0.000   0.000   0.000   0.000   0.000   0.000   0.000   0.000   0.000
  0.000   0.000   0.000   0.000   0.000   0.000   0.000   0.000   0.000   0.000   0.000   0.000   0.000   0.000   0.000   0.000
  0.000   0.000   0.000   0.000   0.000   0.000   0.000   0.000   0.000   0.000   0.000   0.000   0.000   0.000   0.000   0.000
 total augmentation occupancy for first ion, spin component:           2
  0.514   0.000   0.000   0.000   0.000   0.000   0.000   0.000   0.000   0.000   0.000   0.000   0.000   0.000   0.000   0.000
  0.000   0.514   0.000   0.000   0.000   0.000   0.000   0.000   0.000   0.000   0.000   0.000   0.000   0.000   0.000   0.000
  0.000   0.000   0.514   0.000   0.000   0.000   0.000   0.000   0.000   0.000   0.000   0.000   0.000   0.000   0.000   0.000
  0.000   0.000   0.000   0.514   0.000   0.000   0.000   0.000   0.000   0.000   0.000   0.000   0.000   0.000   0.000   0.000
  0.000   0.000   0.000   0.000   0.514   0.000   0.000   0.000   0.000   0.000   0.000   0.000   0.000   0.000   0.000   0.000
  0.000   0.000   0.000   0.000   0.000   0.000   0.000   0.000   0.000   0.000   0.000   0.000   0.000   0.000   0.000   0.000
  0.000   0.000   0.000   0.000   0.000   0.000   0.000   0.000   0.000   0.000   0.000   0.000   0.000   0.000   0.000   0.000
  0.000   0.000   0.000   0.000   0.000   0.000   0.000   0.000   0.000   0.000   0.000   0.000   0.000   0.000   0.000   0.000
  0.000   0.000   0.000   0.000   0.000   0.000   0.000   0.000   0.000   0.000   0.000   0.000   0.000   0.000   0.000   0.000
  0.000   0.000   0.000   0.000   0.000   0.000   0.000   0.000   0.000   0.000   0.000   0.000   0.000   0.000   0.000   0.000
  0.000   0.000   0.000   0.000   0.000   0.000   0.000   0.000   0.000   0.000   0.429   0.000   0.000   0.000   0.000   0.000
  0.000   0.000   0.000   0.000   0.000   0.000   0.000   0.000   0.000   0.000   0.000   0.000   0.000   0.000   0.000   0.000
  0.000   0.000   0.000   0.000   0.000   0.000   0.000   0.000   0.000   0.000   0.000   0.000   0.000   0.000   0.000   0.000
  0.000   0.000   0.000   0.000   0.000   0.000   0.000   0.000   0.000   0.000   0.000   0.000   0.000   0.000   0.000   0.000
  0.000   0.000   0.000   0.000   0.000   0.000   0.000   0.000   0.000   0.000   0.000   0.000   0.000   0.000   0.000   0.000
  0.000   0.000   0.000   0.000   0.000   0.000   0.000   0.000   0.000   0.000   0.000   0.000   0.000   0.000   0.000   0.000
  0.000   0.000   0.000   0.000   0.000   0.000   0.000   0.000   0.000   0.000   0.000   0.000   0.000   0.000   0.000   0.000
  0.000   0.000   0.000   0.000   0.000   0.000   0.000   0.000   0.000   0.000   0.000   0.000   0.000   0.000   0.000   0.000


------------------------ aborting loop because EDIFF is reached ----------------------------------------


 


 total charge     
 
# of ion     s       p       d       tot
----------------------------------------
  1        0.345   0.534   4.785   5.664
  2        0.345   0.534   4.785   5.664
  3        0.345   0.534   4.785   5.664
  4        0.345   0.534   4.785   5.664
  5        1.566   3.453   0.000   5.019
  6        1.566   3.453   0.000   5.019
  7        1.566   3.453   0.000   5.019
  8        1.566   3.453   0.000   5.019
  9        1.587   3.380   0.000   4.967
 10        1.587   3.380   0.000   4.967
 11        1.587   3.380   0.000   4.967
 12        1.587   3.380   0.000   4.967
------------------------------------------------
tot       13.991  29.470  19.142  62.603
 


 magnetization (x)
 
# of ion     s       p       d       tot
----------------------------------------
  1        0.025   0.034   3.111   3.171
  2       -0.025  -0.034  -3.111  -3.171
  3        0.025   0.034   3.111   3.171
  4       -0.025  -0.034  -3.111  -3.171
  5       -0.000   0.013   0.000   0.013
  6        0.000  -0.013   0.000  -0.013
  7       -0.000   0.013   0.000   0.013
  8        0.000  -0.013   0.000  -0.013
  9       -0.001   0.183   0.000   0.183
 10        0.001  -0.183   0.000  -0.183
 11       -0.001   0.183   0.000   0.183
 12        0.001  -0.183   0.000  -0.183
------------------------------------------------
tot       -0.000   0.000   0.000  -0.000
 
    CHARGE:  cpu time    0.04: real time    0.04
    FORLOC:  cpu time    0.00: real time    0.00
    FORNL :  cpu time    0.23: real time    0.23
    STRESS:  cpu time    0.30: real time    0.30
    FORCOR:  cpu time    0.01: real time    0.01
    FORHAR:  cpu time    0.00: real time    0.00

  FORCE on cell =-STRESS in cart. coord.  units (eV):
  Direction    XX          YY          ZZ          XY          YZ          ZX
  --------------------------------------------------------------------------------------
  Alpha Z   301.59653   301.59653   301.59653
  Ewald   -1239.53147  -851.74206 -1984.29242     0.00000    -0.00000    -0.00000
  Hartree   538.15660   730.80273   103.13132    -0.00000    -0.00000    -0.00000
  E(xc)    -373.83620  -373.90552  -374.02502    -0.00000    -0.00000    -0.00000
  Local    -456.30129 -1013.56071   702.54166    -0.00000    -0.00000     0.00000
  n-local  -259.31457  -253.02401  -262.22746     0.00000    -0.01208     0.00001
  augment   176.53889   173.46531   179.08737    -0.00000     0.00000    -0.00000
  Kinetic  1312.63302  1285.88779  1334.29528    -0.00007    -0.41099     0.00001
  Fock        0.00000     0.00000     0.00000     0.00000     0.00000     0.00000
  -------------------------------------------------------------------------------------
  Total      -0.05848    -0.47994     0.10725     0.00000     0.00000     0.00000
  in kB      -0.74253    -6.09390     1.36177     0.00000     0.00000     0.00000
  external pressure =       -1.82 kB  Pullay stress =        0.00 kB


 VOLUME and BASIS-vectors are now :
 -----------------------------------------------------------------------------
  energy-cutoff  :      520.00
  volume of cell :      126.18
      direct lattice vectors                 reciprocal lattice vectors
     0.000000000  2.921741678  0.000000000     0.000000000  0.342261606  0.000000000
     0.000000000  0.000000000  4.582966776     0.000000000  0.000000000  0.218199269
     9.423534984  0.000000000  0.000000000     0.106117291  0.000000000  0.000000000

  length of vectors
     2.921741678  4.582966776  9.423534984     0.342261606  0.218199269  0.106117291


 FORCES acting on ions
    electron-ion (+dipol)            ewald-force                    non-local-force                 convergence-correction
 -----------------------------------------------------------------------------------------------
   -.445E+02 -.652E-13 -.672E+01   0.454E+02 0.318E-14 0.661E+01   -.853E+00 -.285E-17 0.118E+00   0.160E-01 -.239E-13 0.864E-03
   -.445E+02 0.495E-13 0.672E+01   0.454E+02 -.303E-13 -.661E+01   -.853E+00 -.361E-17 -.118E+00   0.160E-01 -.287E-13 -.864E-03
   0.445E+02 -.186E-13 0.672E+01   -.454E+02 0.113E-13 -.661E+01   0.853E+00 -.858E-18 -.118E+00   -.160E-01 0.453E-13 -.864E-03
   0.445E+02 0.936E-13 -.672E+01   -.454E+02 0.132E-13 0.661E+01   0.853E+00 0.285E-18 0.118E+00   -.160E-01 -.137E-12 0.864E-03
   0.199E+02 0.118E-12 0.479E+02   -.199E+02 0.151E-14 -.536E+02   0.517E-01 0.171E-18 0.573E+01   0.151E-02 -.198E-13 -.238E-01
   0.199E+02 0.128E-12 -.479E+02   -.199E+02 -.254E-13 0.536E+02   0.517E-01 -.238E-18 -.573E+01   0.151E-02 -.348E-13 0.238E-01
   -.199E+02 0.214E-12 -.479E+02   0.199E+02 0.979E-14 0.536E+02   -.517E-01 -.252E-18 -.573E+01   -.151E-02 0.739E-13 0.238E-01
   -.199E+02 0.223E-12 0.479E+02   0.199E+02 0.259E-13 -.536E+02   -.517E-01 0.756E-20 0.573E+01   -.151E-02 -.466E-13 -.238E-01
   -.180E+02 0.890E-13 -.197E+03   0.202E+02 -.138E-13 0.223E+03   -.214E+01 -.152E-17 -.252E+02   0.965E-02 0.174E-12 0.333E-01
   -.180E+02 0.131E-12 0.197E+03   0.202E+02 -.963E-14 -.223E+03   -.214E+01 0.171E-17 0.252E+02   0.965E-02 -.955E-13 -.333E-01
   0.180E+02 0.188E-12 0.197E+03   -.202E+02 0.246E-13 -.223E+03   0.214E+01 0.159E-17 0.252E+02   -.965E-02 -.424E-13 -.333E-01
   0.180E+02 0.206E-12 -.197E+03   -.202E+02 -.115E-15 0.223E+03   0.214E+01 0.282E-18 -.252E+02   -.965E-02 0.194E-14 0.333E-01
 -----------------------------------------------------------------------------------------------
   0.470E-09 0.136E-11 0.491E-11   0.213E-13 0.103E-13 -.568E-13   0.000E+00 -.527E-17 0.355E-14   -.135E-10 -.134E-12 0.359E-12
 
 
 POSITION                                       TOTAL-FORCE (eV/Angst)
 -----------------------------------------------------------------------------------
      1.27318      0.73044      0.09751         0.001047      0.000000      0.003757
      5.98495      0.73044      2.19397         0.001047     -0.000000     -0.003757
      8.15035      2.19131      4.48546        -0.001047     -0.000000     -0.003757
      3.43859      2.19131      2.38899        -0.001047     -0.000000      0.003757
      2.67028      0.73044      1.42051         0.008906      0.000000      0.019185
      7.38204      0.73044      0.87097         0.008906      0.000000     -0.019185
      6.75326      2.19131      3.16246        -0.008906      0.000000     -0.019185
      2.04149      2.19131      3.71199        -0.008906      0.000000      0.019185
      4.36234      0.73044      3.26334         0.005386     -0.000000     -0.022557
      9.07411      0.73044      3.61111         0.005386     -0.000000      0.022557
      5.06119      2.19131      1.31963        -0.005386     -0.000000      0.022557
      0.34942      2.19131      0.97185        -0.005386      0.000000     -0.022557
 -----------------------------------------------------------------------------------
    total drift:                                0.000000      0.000000      0.000000


--------------------------------------------------------------------------------------------------------



  FREE ENERGIE OF THE ION-ELECTRON SYSTEM (eV)
  ---------------------------------------------------
  free  energy   TOTEN  =       -84.58008661 eV

  energy  without entropy=      -84.58008661  energy(sigma->0) =      -84.58008661
 


--------------------------------------------------------------------------------------------------------


    POTLOK:  cpu time    0.02: real time    0.02


--------------------------------------------------------------------------------------------------------


 writing wavefunctions
     LOOP+:  cpu time    9.92: real time   13.86
    4ORBIT:  cpu time    0.00: real time    0.00
 


 total charge     
 
# of ion     s       p       d       tot
----------------------------------------
  1        0.345   0.534   4.785   5.664
  2        0.345   0.534   4.785   5.664
  3        0.345   0.534   4.785   5.664
  4        0.345   0.534   4.785   5.664
  5        1.566   3.453   0.000   5.019
  6        1.566   3.453   0.000   5.019
  7        1.566   3.453   0.000   5.019
  8        1.566   3.453   0.000   5.019
  9        1.587   3.380   0.000   4.967
 10        1.587   3.380   0.000   4.967
 11        1.587   3.380   0.000   4.967
 12        1.587   3.380   0.000   4.967
------------------------------------------------
tot       13.991  29.470  19.142  62.603
 


 magnetization (x)
 
# of ion     s       p       d       tot
----------------------------------------
  1        0.025   0.034   3.111   3.171
  2       -0.025  -0.034  -3.111  -3.171
  3        0.025   0.034   3.111   3.171
  4       -0.025  -0.034  -3.111  -3.171
  5       -0.000   0.013   0.000   0.013
  6        0.000  -0.013   0.000  -0.013
  7       -0.000   0.013   0.000   0.013
  8        0.000  -0.013   0.000  -0.013
  9       -0.001   0.183   0.000   0.183
 10        0.001  -0.183   0.000  -0.183
 11       -0.001   0.183   0.000   0.183
 12        0.001  -0.183   0.000  -0.183
------------------------------------------------
tot       -0.000   0.000   0.000  -0.000
 
 BZINTS: Fermi energy:  2.068530; 76.000000 electrons
         Band energy:-316.141168;  BLOECHL correction:  0.000000

 total amount of memory used by VASP on root node    41777. kBytes
========================================================================

   base      :      30000. kBytes
   nonl-proj :       6137. kBytes
   fftplans  :        401. kBytes
   grid      :        981. kBytes
   one-center:         93. kBytes
   wavefun   :       4165. kBytes
 
  
  
 General timing and accounting informations for this job:
 ========================================================
  
                  Total CPU time used (sec):       11.639
                            User time (sec):       11.355
                          System time (sec):        0.284
                         Elapsed time (sec):       16.527
  
                   Maximum memory used (kb):       84868.
                   Average memory used (kb):           0.
  
                          Minor page faults:        13515
                          Major page faults:            0
                 Voluntary context switches:         1655
