 vasp.5.3.3 18Dez12 (build May 12 2016 12:04:25) complex                        
  
 executed on             LinuxIFC date 2019.03.14  12:47:43
 running on   80 total cores
 distrk:  each k-point on   80 cores,    1 groups
 distr:  one band on NCORES_PER_BAND=  10 cores,    8 groups


--------------------------------------------------------------------------------------------------------


 INCAR:
 POTCAR:   PAW_PBE Mn 06Sep2000                   
 POTCAR:   PAW_PBE O_s 07Sep2000                  
 POTCAR:    PAW_PBE Li 17Jan2003                  
 POTCAR:   PAW_PBE Mn 06Sep2000                   
  local pseudopotential read in
  partial core-charges read in
  atomic valenz-charges read in
  non local Contribution for L=           2  read in
    real space projection operators read in
  non local Contribution for L=           2  read in
    real space projection operators read in
  non local Contribution for L=           0  read in
    real space projection operators read in
  non local Contribution for L=           0  read in
    real space projection operators read in
  non local Contribution for L=           1  read in
    real space projection operators read in
  non local Contribution for L=           1  read in
    real space projection operators read in
    PAW grid and wavefunctions read in
 
   number of l-projection  operators is LMAX  =           6
   number of lm-projection operators is LMMAX =          18
 
 POTCAR:   PAW_PBE O_s 07Sep2000                  
  local pseudopotential read in
  atomic valenz-charges read in
  non local Contribution for L=           0  read in
    real space projection operators read in
  non local Contribution for L=           0  read in
    real space projection operators read in
  non local Contribution for L=           1  read in
    real space projection operators read in
  non local Contribution for L=           1  read in
    real space projection operators read in
    PAW grid and wavefunctions read in
 
   number of l-projection  operators is LMAX  =           4
   number of lm-projection operators is LMMAX =           8
 
 POTCAR:    PAW_PBE Li 17Jan2003                  
  local pseudopotential read in
  partial core-charges read in
  atomic valenz-charges read in
  non local Contribution for L=           0  read in
    real space projection operators read in
  non local Contribution for L=           0  read in
    real space projection operators read in
  non local Contribution for L=           1  read in
    real space projection operators read in
    PAW grid and wavefunctions read in
 
   number of l-projection  operators is LMAX  =           3
   number of lm-projection operators is LMMAX =           5
 

 ----------------------------------------------------------------------------- 
|                                                                             |
|  ADVICE TO THIS USER RUNNING 'VASP/VAMP'   (HEAR YOUR MASTER'S VOICE ...):  |
|                                                                             |
|      You have a (more or less) 'large supercell' and for larger cells       |
|      it might be more efficient to use real space projection operators      |
|      So try LREAL= Auto  in the INCAR   file.                               |
|      Mind: If you want to do a very accurate calculations keep the          |
|      reciprocal projection scheme          (i.e. LREAL=.FALSE.)             |
|                                                                             |
 ----------------------------------------------------------------------------- 

 PAW_PBE Mn 06Sep2000                   :
 energy of atom  1       EATOM= -416.8732
 kinetic energy error for atom=    0.0088 (will be added to EATOM!!)
 PAW_PBE O_s 07Sep2000                  :
 energy of atom  2       EATOM= -432.2909
 kinetic energy error for atom=    0.0164 (will be added to EATOM!!)
  PAW_PBE Li 17Jan2003                  :
 energy of atom  3       EATOM=   -5.3001
 kinetic energy error for atom=    0.0000 (will be added to EATOM!!)
 
 
 POSCAR: (Li2 Mn15 O30)2  (P1) ~ CONTCAR (VASP)  
  positions in direct lattice
  velocities in cartesian coordinates
 exchange correlation table for  LEXCH =        8
   RHO(1)=    0.500       N(1)  =     2000
   RHO(2)=  100.500       N(2)  =     4000
 


--------------------------------------------------------------------------------------------------------


 ion  position               nearest neighbor table
   1  0.066  0.257  0.604-  52 1.92  52 1.93  63 1.94  72 1.95  72 1.95  31 1.96  10 2.95  10 2.95

   2  0.065  0.255  0.469-  51 1.92  51 1.92  64 1.93  32 1.93  71 1.95  71 1.95   9 2.94   9 2.94

   3  0.965  0.757  0.023-  50 1.91  50 1.91  33 1.94  65 1.95  70 1.95  70 1.95   8 2.97   8 2.97

   4  0.057  0.253  0.334-  49 1.92  49 1.92  66 1.94  34 1.94  69 1.95  69 1.95   7 2.95   7 2.95

   5  0.969  0.754  0.160-  48 1.92  48 1.92  35 1.93  67 1.94  68 1.95  68 1.95   6 2.95   6 2.96

   6  0.041  0.253  0.198-  47 1.92  47 1.92  36 1.94  68 1.94  67 1.95  67 1.95   5 2.95   5 2.96

   7  0.956  0.753  0.297-  46 1.91  46 1.91  37 1.93  69 1.94  66 1.95  66 1.95   4 2.95   4 2.95

   8  0.040  0.256  0.060-  45 1.92  45 1.92  70 1.94  38 1.94  65 1.95  65 1.95   3 2.97   3 2.97

   9  0.947  0.755  0.433-  44 1.91  44 1.91  39 1.93  71 1.94  64 1.95  64 1.95   2 2.94   2 2.94

  10  0.948  0.757  0.567-  43 1.91  43 1.91  40 1.93  72 1.95  63 1.96  63 1.96   1 2.95   1 2.95

  11  0.459  0.260  0.673-  42 1.90  41 1.92  41 1.92  62 1.97  62 1.98  53 1.99  91 2.74  91 2.74
                            91 2.87  91 2.87  20 3.04  20 3.05
  12  0.449  0.256  0.537-  40 1.92  40 1.92  54 1.93  43 1.93  61 1.95  61 1.95  19 2.94  19 2.94

  13  0.448  0.254  0.402-  39 1.92  39 1.92  55 1.93  44 1.93  60 1.95  60 1.95  18 2.94  18 2.94

  14  0.540  0.755  0.092-  38 1.92  38 1.92  45 1.94  56 1.95  59 1.95  59 1.95  17 2.96  17 2.96

  15  0.456  0.253  0.266-  37 1.92  37 1.92  46 1.94  57 1.94  58 1.95  58 1.95  16 2.95  16 2.95

  16  0.541  0.753  0.229-  36 1.92  36 1.92  47 1.93  58 1.94  57 1.95  57 1.95  15 2.95  15 2.95

  17  0.470  0.255  0.129-  35 1.92  35 1.92  48 1.94  59 1.94  56 1.95  56 1.95  14 2.96  14 2.96

  18  0.557  0.754  0.365-  34 1.91  34 1.91  49 1.93  60 1.94  55 1.95  55 1.95  13 2.94  13 2.94

  19  0.565  0.756  0.500-  32 1.91  32 1.91  51 1.93  61 1.94  54 1.95  54 1.95  12 2.94  12 2.94

  20  0.569  0.759  0.635-  31 1.90  31 1.91  52 1.91  62 1.94  53 2.01  53 2.02  91 2.73  11 3.04
                            11 3.05
  21  0.970  0.761  0.707-  77 1.90  77 1.90  86 1.94  42 2.01  42 2.02  41 2.05  91 2.78
  22  0.971  0.762  0.770-  78 1.92  78 1.92  82 1.93  82 1.93  87 1.95  73 1.95
  23  0.970  0.762  0.833-  79 1.92  79 1.93  83 1.93  83 1.93  74 1.95  88 1.95
  24  0.969  0.761  0.896-  84 1.92  84 1.93  80 1.93  80 1.93  75 1.95  89 1.96
  25  0.967  0.759  0.959-  85 1.93  85 1.93  81 1.93  81 1.93  76 1.95  90 1.96
  26  0.470  0.262  0.738-  73 1.92  73 1.92  86 1.94  86 1.94  82 1.95  77 1.98
  27  0.470  0.262  0.801-  74 1.92  74 1.93  87 1.93  87 1.93  83 1.95  78 1.95
  28  0.470  0.261  0.864-  88 1.93  88 1.93  75 1.93  75 1.93  79 1.95  84 1.95
  29  0.469  0.260  0.928-  89 1.92  89 1.93  76 1.93  76 1.93  80 1.95  85 1.96
  30  0.466  0.258  0.991-  90 1.92  90 1.92  33 1.93  33 1.93  50 1.95  81 1.96
  31  0.397  0.258  0.622-  20 1.90  20 1.91   1 1.96
  32  0.397  0.256  0.486-  19 1.91  19 1.91   2 1.93
  33  0.638  0.758  0.005-  30 1.93  30 1.93   3 1.94
  34  0.384  0.254  0.352-  18 1.91  18 1.91   4 1.94
  35  0.664  0.754  0.141-  17 1.92  17 1.92   5 1.93
  36  0.351  0.253  0.217-  16 1.92  16 1.92   6 1.94
  37  0.637  0.753  0.279-  15 1.92  15 1.92   7 1.93
  38  0.347  0.255  0.079-  14 1.92  14 1.92   8 1.94
  39  0.618  0.754  0.416-  13 1.92  13 1.92   9 1.93
  40  0.616  0.756  0.551-  12 1.92  12 1.92  10 1.93
  41  0.648  0.761  0.686-  11 1.92  11 1.92  91 1.94  21 2.05
  42  0.124  0.261  0.689-  11 1.90  21 2.01  21 2.02  91 2.33  91 2.33
  43  0.116  0.257  0.554-  10 1.91  10 1.91  12 1.93
  44  0.117  0.255  0.419-   9 1.91   9 1.91  13 1.93
  45  0.848  0.756  0.072-   8 1.92   8 1.92  14 1.94
  46  0.136  0.253  0.284-   7 1.91   7 1.91  15 1.94
  47  0.852  0.753  0.210-   6 1.92   6 1.92  16 1.93
  48  0.164  0.254  0.148-   5 1.92   5 1.92  17 1.94
  49  0.884  0.753  0.348-   4 1.92   4 1.92  18 1.93
  50  0.150  0.257  0.010-   3 1.91   3 1.91  30 1.95
  51  0.897  0.755  0.483-   2 1.92   2 1.92  19 1.93
  52  0.899  0.758  0.618-  20 1.91   1 1.92   1 1.93
  53  0.741  0.260  0.651-  11 1.99  91 2.00  91 2.00  20 2.01  20 2.02
  54  0.724  0.256  0.515-  12 1.93  19 1.95  19 1.95
  55  0.720  0.254  0.380-  13 1.93  18 1.95  18 1.95
  56  0.293  0.755  0.115-  14 1.95  17 1.95  17 1.95
  57  0.713  0.253  0.244-  15 1.94  16 1.95  16 1.95
  58  0.285  0.753  0.252-  16 1.94  15 1.95  15 1.95
  59  0.717  0.255  0.106-  17 1.94  14 1.95  14 1.95
  60  0.286  0.754  0.387-  18 1.94  13 1.95  13 1.95
  61  0.290  0.756  0.521-  19 1.94  12 1.95  12 1.95
  62  0.307  0.760  0.657-  91 1.80  20 1.94  11 1.97  11 1.98
  63  0.789  0.257  0.583-   1 1.94  10 1.96  10 1.96
  64  0.789  0.255  0.448-   2 1.93   9 1.95   9 1.95
  65  0.216  0.756  0.046-   8 1.95   8 1.95   3 1.95
  66  0.790  0.253  0.313-   4 1.94   7 1.95   7 1.95
  67  0.217  0.753  0.183-   5 1.94   6 1.95   6 1.95
  68  0.792  0.254  0.175-   6 1.94   5 1.95   5 1.95
  69  0.222  0.753  0.319-   7 1.94   4 1.95   4 1.95
  70  0.791  0.257  0.037-   8 1.94   3 1.95   3 1.95
  71  0.223  0.755  0.454-   9 1.94   2 1.95   2 1.95
  72  0.226  0.757  0.589-  10 1.95   1 1.95   1 1.95
  73  0.642  0.762  0.752-  26 1.92  26 1.92  22 1.95
  74  0.637  0.762  0.815-  27 1.92  27 1.93  23 1.95
  75  0.637  0.761  0.879-  28 1.93  28 1.93  24 1.95
  76  0.636  0.760  0.942-  29 1.93  29 1.93  25 1.95
  77  0.798  0.262  0.720-  21 1.90  21 1.90  26 1.98
  78  0.804  0.262  0.784-  22 1.92  22 1.92  27 1.95
  79  0.803  0.262  0.847-  23 1.92  23 1.93  28 1.95
  80  0.802  0.261  0.910-  24 1.93  24 1.93  29 1.95
  81  0.801  0.259  0.974-  25 1.93  25 1.93  30 1.96
  82  0.136  0.262  0.755-  22 1.93  22 1.93  26 1.95
  83  0.137  0.262  0.819-  23 1.93  23 1.93  27 1.95
  84  0.137  0.261  0.882-  24 1.92  24 1.93  28 1.95
  85  0.137  0.259  0.945-  25 1.93  25 1.93  29 1.96
  86  0.307  0.762  0.723-  21 1.94  26 1.94  26 1.94
  87  0.305  0.762  0.787-  27 1.93  27 1.93  22 1.95
  88  0.303  0.762  0.850-  28 1.93  28 1.93  23 1.95
  89  0.301  0.760  0.914-  29 1.92  29 1.93  24 1.96
  90  0.298  0.758  0.977-  30 1.92  30 1.92  25 1.96
  91  0.943  0.761  0.666-  62 1.80  41 1.94  53 2.00  53 2.00  42 2.33  42 2.33  20 2.73  11 2.74
                            11 2.74  21 2.78  11 2.87  11 2.87
 
  LATTYP: Found a triclinic cell.
 ALAT       =    68.4168895123
 B/A-ratio  =     0.0429796228
 C/A-ratio  =     0.0681632965
 COS(alpha) =     0.0000125874
 COS(beta)  =     0.0011526902
 COS(gamma) =     0.0860680778
  
  Lattice vectors:
  
 A1 = (  -0.0159462623,  -5.8847172213, -68.1633377959)
 A2 = (  -0.0000231005,  -2.9405320982,  -0.0001636209)
 A3 = (  -4.6635187437,  -0.0000218260,  -0.0043027135)


Analysis of symmetry for initial positions (statically):
=====================================================================
 Subroutine PRICEL returns:
 Original cell was already a primitive cell.
 

 Routine SETGRP: Setting up the symmetry group for a 
 triclinic supercell.


 Subroutine GETGRP returns: Found  1 space group operations
 (whereof  1 operations were pure point group operations)
 out of a pool of  2 trial point group operations.


The static configuration has the point symmetry C_1 .


Analysis of symmetry for dynamics (positions and initial velocities):
=====================================================================
 Subroutine PRICEL returns:
 Original cell was already a primitive cell.
 

 Routine SETGRP: Setting up the symmetry group for a 
 triclinic supercell.


 Subroutine GETGRP returns: Found  1 space group operations
 (whereof  1 operations were pure point group operations)
 out of a pool of  2 trial point group operations.


The dynamic configuration has the point symmetry C_1 .


Analysis of magnetic symmetry:
=====================================================================

 Subroutine MAGSYM returns: Found  1 space group operations
 (whereof  1 operations were pure point group operations)
 out of a pool of  1 trial space group operations
 (whereof  1 operations were pure point group operations)
 and found also     1 'primitive' translations


The magnetic configuration has the point symmetry C_1 .


 irot  :   1
 --------------------------------------------------------------------
 isymop:   1   0   0
           0   1   0
           0   0   1

 gtrans:     0.0000000     0.0000000     0.0000000

 ptrans:     0.0000000     0.0000000     0.0000000
 rotmap:
 (   1->   1)  (   2->   2)  (   3->   3)  (   4->   4)  (   5->   5) 
 (   6->   6)  (   7->   7)  (   8->   8)  (   9->   9)  (  10->  10) 
 (  11->  11)  (  12->  12)  (  13->  13)  (  14->  14)  (  15->  15) 
 (  16->  16)  (  17->  17)  (  18->  18)  (  19->  19)  (  20->  20) 
 (  21->  21)  (  22->  22)  (  23->  23)  (  24->  24)  (  25->  25) 
 (  26->  26)  (  27->  27)  (  28->  28)  (  29->  29)  (  30->  30) 
 (  31->  31)  (  32->  32)  (  33->  33)  (  34->  34)  (  35->  35) 
 (  36->  36)  (  37->  37)  (  38->  38)  (  39->  39)  (  40->  40) 
 (  41->  41)  (  42->  42)  (  43->  43)  (  44->  44)  (  45->  45) 
 (  46->  46)  (  47->  47)  (  48->  48)  (  49->  49)  (  50->  50) 
 (  51->  51)  (  52->  52)  (  53->  53)  (  54->  54)  (  55->  55) 
 (  56->  56)  (  57->  57)  (  58->  58)  (  59->  59)  (  60->  60) 
 (  61->  61)  (  62->  62)  (  63->  63)  (  64->  64)  (  65->  65) 
 (  66->  66)  (  67->  67)  (  68->  68)  (  69->  69)  (  70->  70) 
 (  71->  71)  (  72->  72)  (  73->  73)  (  74->  74)  (  75->  75) 
 (  76->  76)  (  77->  77)  (  78->  78)  (  79->  79)  (  80->  80) 
 (  81->  81)  (  82->  82)  (  83->  83)  (  84->  84)  (  85->  85) 
 (  86->  86)  (  87->  87)  (  88->  88)  (  89->  89)  (  90->  90) 
 (  91->  91) 
 
 
 KPOINTS: Automatic mesh                          

Automatic generation of k-mesh.
Space group operators:
 irot       det(A)        alpha          n_x          n_y          n_z        tau_x        tau_y        tau_z
    1     1.000000     0.000000     1.000000     0.000000     0.000000     0.000000     0.000000     0.000000
 
 Subroutine IBZKPT returns following result:
 ===========================================
 
 Found      4 irreducible k-points:
 
 Following reciprocal coordinates:
            Coordinates               Weight
  0.000000  0.000000  0.000000      1.000000
  0.500000  0.000000  0.000000      1.000000
  0.000000  0.333333 -0.000000      2.000000
  0.500000  0.333333  0.000000      2.000000
 
 Following cartesian coordinates:
            Coordinates               Weight
  0.000000  0.000000  0.000000      1.000000
  0.107215 -0.000001 -0.000025      1.000000
 -0.000001  0.113358 -0.000006      2.000000
  0.107215  0.113357 -0.000031      2.000000
 


--------------------------------------------------------------------------------------------------------




 Dimension of arrays:
   k-points           NKPTS =      4   k-points in BZ     NKDIM =      4   number of bands    NBANDS=    408
   number of dos      NEDOS =    301   number of ions     NIONS =     91
   non local maximal  LDIM  =      6   non local SUM 2l+1 LMDIM =     18
   total plane-waves  NPLWV = 112896
   max r-space proj   IRMAX =      1   max aug-charges    IRDMAX=   4639
   dimension x,y,z NGX =    24 NGY =   14 NGZ =  336
   dimension x,y,z NGXF=    48 NGYF=   28 NGZF=  672
   support grid    NGXF=    48 NGYF=   28 NGZF=  672
   ions per type =              30  60   1
 NGX,Y,Z   is equivalent  to a cutoff of   8.56,  7.92,  8.19 a.u.
 NGXF,Y,Z  is equivalent  to a cutoff of  17.11, 15.83, 16.39 a.u.


 I would recommend the setting:
   dimension x,y,z NGX =    23 NGY =   14 NGZ =  333
 SYSTEM =  unknown system                          
 POSCAR =  (Li2 Mn15 O30)2  (P1) ~ CONTCAR (VASP)  

 Startparameter for this run:
   NWRITE =      1    write-flag & timer
   PREC   = normal    normal or accurate (medium, high low for compatibility)
   ISTART =      0    job   : 0-new  1-cont  2-samecut
   ICHARG =      2    charge: 1-file 2-atom 10-const
   ISPIN  =      2    spin polarized calculation?
   LNONCOLLINEAR =      F non collinear calculations
   LSORBIT =      F    spin-orbit coupling
   INIWAV =      1    electr: 0-lowe 1-rand  2-diag
   LASPH  =      F    aspherical Exc in radial PAW
   METAGGA=      F    non-selfconsistent MetaGGA calc.

 Electronic Relaxation 1
   ENCUT  =  400.0 eV  29.40 Ry    5.42 a.u.   7.61  4.80111.16*2*pi/ulx,y,z
   ENINI  =  400.0     initial cutoff
   ENAUG  =  500.7 eV  augmentation charge cutoff
   NELM   =     60;   NELMIN=  2; NELMDL= -5     # of ELM steps 
   EDIFF  = 0.1E-03   stopping-criterion for ELM
   LREAL  =      F    real-space projection
   NLSPLINE    = F    spline interpolate recip. space projectors
   LCOMPAT=      F    compatible to vasp.4.4
   GGA_COMPAT  = T    GGA compatible to vasp.4.4-vasp.4.6
   LMAXPAW     = -100 max onsite density
   LMAXMIX     =    4 max onsite mixed and CHGCAR
   VOSKOWN=      1    Vosko Wilk Nusair interpolation
   ROPT   =    0.00000   0.00000   0.00000
 Ionic relaxation
   EDIFFG = 0.1E-02   stopping-criterion for IOM
   NSW    =    151    number of steps for IOM
   NBLOCK =      1;   KBLOCK =    151    inner block; outer block 
   IBRION =      2    ionic relax: 0-MD 1-quasi-New 2-CG
   NFREE  =      1    steps in history (QN), initial steepest desc. (CG)
   ISIF   =      3    stress and relaxation
   IWAVPR =     11    prediction:  0-non 1-charg 2-wave 3-comb
   ISYM   =      2    0-nonsym 1-usesym 2-fastsym
   LCORR  =      T    Harris-Foulkes like correction to forces

   POTIM  = 0.5000    time-step for ionic-motion
   TEIN   =    0.0    initial temperature
   TEBEG  =    0.0;   TEEND  =   0.0 temperature during run
   SMASS  =  -3.00    Nose mass-parameter (am)
   estimated Nose-frequenzy (Omega)   =  0.10E-29 period in steps =****** mass=  -0.497E-27a.u.
   SCALEE = 1.0000    scale energy and forces
   NPACO  =    256;   APACO  = 16.0  distance and # of slots for P.C.
   PSTRESS=    0.0 pullay stress

  Mass of Ions in am
   POMASS =  54.94 16.00  7.01
  Ionic Valenz
   ZVAL   =   7.00  6.00  1.00
  Atomic Wigner-Seitz radii
   RWIGS  =  -1.00 -1.00 -1.00
  virtual crystal weights 
   VCA    =   1.00  1.00  1.00
   NELECT =     571.0000    total number of electrons
   NUPDOWN=      -1.0000    fix difference up-down

 DOS related values:
   EMIN   =  10.00;   EMAX   =-10.00  energy-range for DOS
   EFERMI =   0.00
   ISMEAR =     1;   SIGMA  =   0.20  broadening in eV -4-tet -1-fermi 0-gaus

 Electronic relaxation 2 (details)
   IALGO  =     38    algorithm
   LDIAG  =      T    sub-space diagonalisation (order eigenvalues)
   LSUBROT=      T    optimize rotation matrix (better conditioning)
   TURBO    =      0    0=normal 1=particle mesh
   IRESTART =      0    0=no restart 2=restart with 2 vectors
   NREBOOT  =      0    no. of reboots
   NMIN     =      0    reboot dimension
   EREF     =   0.00    reference energy to select bands
   IMIX   =      4    mixing-type and parameters
     AMIX     =   0.40;   BMIX     =  1.00
     AMIX_MAG =   1.60;   BMIX_MAG =  1.00
     AMIN     =   0.01
     WC   =   100.;   INIMIX=   1;  MIXPRE=   1;  MAXMIX= -45

 Intra band minimization:
   WEIMIN = 0.0010     energy-eigenvalue tresh-hold
   EBREAK =  0.61E-07  absolut break condition
   DEPER  =   0.30     relativ break condition  

   TIME   =   0.40     timestep for ELM

  volume/ion in A,a.u.               =      10.27        69.32
  Fermi-wavevector in a.u.,A,eV,Ry     =   1.389070  2.624961 26.252647  1.929515
  Thomas-Fermi vector in A             =   2.513136
 
 Write flags
   LWAVE  =      F    write WAVECAR
   LCHARG =      F    write CHGCAR
   LVTOT  =      F    write LOCPOT, total local potential
   LVHAR  =      F    write LOCPOT, Hartree potential only
   LELF   =      F    write electronic localiz. function (ELF)
   LORBIT =      0    0 simple, 1 ext, 2 COOP (PROOUT)


 Dipole corrections
   LMONO  =      F    monopole corrections only (constant potential shift)
   LDIPOL =      F    correct potential (dipole corrections)
   IDIPOL =      0    1-x, 2-y, 3-z, 4-all directions 
   EPSILON=  1.0000000 bulk dielectric constant

 LDA+U is selected, type is set to LDAUTYPE =  2
   angular momentum for each species LDAUL =     2   -1    0
   U (eV)           for each species LDAUU =   3.9  0.0  1.0
   J (eV)           for each species LDAUJ =   0.0  0.0  0.0
 Exchange correlation treatment:
   GGA     =    --    GGA type
   LEXCH   =     8    internal setting for exchange type
   VOSKOWN=      1    Vosko Wilk Nusair interpolation
   LHFCALC =     F    Hartree Fock is set to
   LHFONE  =     F    Hartree Fock one center treatment
   AEXX    =    0.0000 exact exchange contribution

 Linear response parameters
   LEPSILON=     F    determine dielectric tensor
   LRPA    =     F    only Hartree local field effects (RPA)
   LNABLA  =     F    use nabla operator in PAW spheres
   LVEL    =     F    velocity operator in full k-point grid
   LINTERFAST=   F  fast interpolation
   KINTER  =     0    interpolate to denser k-point grid
   CSHIFT  =0.1000    complex shift for real part using Kramers Kronig
   OMEGAMAX=  -1.0    maximum frequency
   DEG_THRESHOLD= 0.2000000E-02 threshold for treating states as degnerate
   RTIME   =    0.100 relaxation time in fs

 Orbital magnetization related:
   ORBITALMAG=     F  switch on orbital magnetization
   LCHIMAG   =     F  perturbation theory with respect to B field
   DQ        =  0.001000  dq finite difference perturbation B field



--------------------------------------------------------------------------------------------------------


 conjugate gradient relaxation of ions
 charge density and potential will be updated during run
 spin polarized calculation
 Variant of blocked Davidson
 Davidson routine will perform the subspace rotation
 perform sub-space diagonalisation
    after iterative eigenvector-optimisation
 modified Broyden-mixing scheme, WC =      100.0
 initial mixing is a Kerker type mixing with AMIX =  0.4000 and BMIX =      1.0000
 Hartree-type preconditioning will be used
 using additional bands          122
 reciprocal scheme for non local part
 use partial core corrections
 calculate Harris-corrections to forces 
   (improved forces if not selfconsistent)
 use gradient corrections 
 use of overlap-Matrix (Vanderbilt PP)
 Methfessel and Paxton  Order N= 1 SIGMA  =   0.20


--------------------------------------------------------------------------------------------------------


  energy-cutoff  :      400.00
  volume of cell :      934.73
      direct lattice vectors                 reciprocal lattice vectors
     4.663518744  0.000021826  0.004302714     0.214430405 -0.000001682 -0.000050019
     0.000023101  2.940532098  0.000163621    -0.000001575  0.340074507 -0.000018225
     0.015900061  0.003653025 68.163010554    -0.000013536 -0.000000816  0.014670717

  length of vectors
     4.663520729  2.940532103 68.163012506     0.214430411  0.340074507  0.014670723


 
 k-points in units of 2pi/SCALE and weight: Automatic mesh                          
   0.00000000  0.00000000  0.00000000       0.167
   0.10721520 -0.00000084 -0.00002501       0.167
  -0.00000052  0.11335817 -0.00000608       0.333
   0.10721468  0.11335733 -0.00003108       0.333
 
 k-points in reciprocal lattice and weights: Automatic mesh                          
   0.00000000  0.00000000  0.00000000       0.167
   0.50000000  0.00000000  0.00000000       0.167
   0.00000000  0.33333333 -0.00000000       0.333
   0.50000000  0.33333333  0.00000000       0.333
 
 position of ions in fractional coordinates (direct lattice) 
   0.06644194  0.25721448  0.60398784
   0.06477958  0.25510656  0.46925985
   0.96461317  0.75714161  0.02260457
   0.05736590  0.25314545  0.33425201
   0.96920056  0.75378989  0.16046328
   0.04103062  0.25329231  0.19774589
   0.95593513  0.75294375  0.29743912
   0.04018870  0.25618817  0.06004301
   0.94747675  0.75470633  0.43276402
   0.94848120  0.75684504  0.56737613
   0.45931229  0.26044736  0.67338075
   0.44870699  0.25622796  0.53659589
   0.44787671  0.25407823  0.40192034
   0.54026387  0.75520069  0.09157418
   0.45612120  0.25284008  0.26623533
   0.54083438  0.75295070  0.22914212
   0.47039075  0.25450760  0.12895703
   0.55746203  0.75360747  0.36524896
   0.56500895  0.75572237  0.50002444
   0.56939356  0.75876775  0.63494819
   0.97021893  0.76148775  0.70650034
   0.97070136  0.76220251  0.76965445
   0.96989881  0.76190847  0.83274562
   0.96913344  0.76087555  0.89596570
   0.96727509  0.75921896  0.95934026
   0.47023307  0.26204980  0.73809348
   0.47000160  0.26214652  0.80118636
   0.46994515  0.26147757  0.86433765
   0.46923609  0.26012832  0.92763416
   0.46643963  0.25823127  0.99105606
   0.39712231  0.25801122  0.62161096
   0.39714189  0.25558409  0.48622725
   0.63839239  0.75797466  0.00506106
   0.38378937  0.25350852  0.35178291
   0.66359503  0.75430832  0.14129518
   0.35140940  0.25299788  0.21664893
   0.63666315  0.75281146  0.27943044
   0.34652279  0.25536501  0.07930249
   0.61754522  0.75414546  0.41573399
   0.61646977  0.75630383  0.55053834
   0.64815901  0.76063055  0.68595917
   0.12370924  0.26097015  0.68919363
   0.11605381  0.25671059  0.55355301
   0.11720710  0.25456907  0.41904468
   0.84754998  0.75593987  0.07245168
   0.13606097  0.25291074  0.28436545
   0.85156738  0.75317470  0.21036891
   0.16401846  0.25389253  0.14825385
   0.88373770  0.75318717  0.34786046
   0.15011937  0.25732754  0.00986814
   0.89704386  0.75516446  0.48319712
   0.89870845  0.75757822  0.61816841
   0.74134966  0.26021262  0.65142018
   0.72404605  0.25575055  0.51541750
   0.71951452  0.25364273  0.38049636
   0.29306129  0.75461584  0.11462916
   0.71307172  0.25287451  0.24386701
   0.28515355  0.75285422  0.25161106
   0.71710019  0.25499962  0.10598267
   0.28640115  0.75397130  0.38678191
   0.28964921  0.75607969  0.52128555
   0.30711266  0.75998384  0.65711212
   0.78937798  0.25686682  0.58285482
   0.78871829  0.25472071  0.44816618
   0.21563293  0.75633545  0.04552581
   0.79031725  0.25293652  0.31254078
   0.21726816  0.75337356  0.18336364
   0.79241838  0.25361494  0.17492222
   0.22199052  0.75308837  0.31926824
   0.79135683  0.25687227  0.03731358
   0.22334535  0.75501346  0.45396112
   0.22594020  0.75695956  0.58867633
   0.64165902  0.76201644  0.75193648
   0.63677076  0.76204819  0.81538735
   0.63689240  0.76131026  0.87856331
   0.63633186  0.75990066  0.94187968
   0.79848146  0.26162651  0.71971237
   0.80434298  0.26213558  0.78386870
   0.80286400  0.26177932  0.84696095
   0.80181229  0.26068036  0.91020706
   0.80097969  0.25896398  0.97367867
   0.13593497  0.26215153  0.75519401
   0.13693512  0.26193949  0.81851745
   0.13725830  0.26096880  0.88181167
   0.13676807  0.25936289  0.94523690
   0.30676620  0.76190063  0.72323393
   0.30494256  0.76214773  0.78682180
   0.30256560  0.76154202  0.85015660
   0.30117207  0.76025100  0.91350072
   0.29846454  0.75838202  0.97700886
   0.94323164  0.76058910  0.66580650
 
 position of ions in cartesian coordinates  (Angst):
   0.31946263  0.75855526 41.16995741
   0.30956796  0.75186466 31.98648468
   4.49886850  2.22650283  1.54506972
   0.27284740  0.74560461 22.78391149
   4.52245378  2.21715069 10.94195382
   0.19449707  0.74553742 13.47917286
   4.46276807  2.21516268 20.27858225
   0.18838138  0.75354975  4.09292724
   4.42547398  2.22083977 29.50269867
   4.43229866  2.22762046 38.67827002
   2.15272431  0.76832372 45.90167833
   2.10109129  0.75541655 36.57796421
   2.09507787  0.74860318 27.39806908
   2.52100417  2.22103819  6.24441965
   2.13136877  0.74446690 18.14940555
   2.52585202  2.21492457 15.62146692
   2.19573240  0.74886910  8.79216472
   2.60555951  2.21735339 24.89899040
   2.64289770  2.22406483 34.08572615
   2.66549080  2.23351282 43.28255444
   4.53588515  2.24178122 48.16148923
   4.53913916  2.24411369 52.46626559
   4.53639959  2.24347952 56.76674657
   4.53383545  2.24067311 61.07601378
   4.52617662  2.23603334 65.39580656
   2.20468254  0.77327238 50.31273982
   2.20460622  0.77378727 54.61333942
   2.20534706  0.77205088 58.91792133
   2.20304677  0.76831458 63.23239835
   2.19101378  0.76296788 67.55541371
   1.86187696  0.76096972 42.37262536
   1.85981562  0.75333810 33.14446384
   2.97725285  2.22888124  0.34784787
   1.79540814  0.74674339 23.98027470
   3.09695191  2.21859845  9.63408380
   1.64225491  0.74474749 14.76899677
   2.97355087  2.21470094 19.04968245
   1.61728233  0.75120627  5.40702920
   2.88656132  2.21912111 28.34046108
   2.88368939  2.22596027 37.52912725
   3.03362604  2.23917852 46.75995529
   0.58788463  0.76991143 46.97808762
   0.55002659  0.75689040 37.73238084
   0.55326624  0.75010186 28.56389264
   3.95373464  2.22314861  4.94229539
   0.63905014  0.74473392 19.38383168
   3.97466271  2.21552145 14.34316539
   0.76726627  0.74712430 10.10617596
   4.12687573  2.21606109 23.71514201
   0.70024736  0.75671921  0.67333019
   4.19108118  2.22237005 32.94015372
   4.20099010  2.22996087 42.14021096
   3.46766167  0.76755940 44.40599311
   3.38480341  0.75394134 35.13556556
   3.36152524  0.74725026 25.93891453
   1.36853684  2.21939723  7.81485275
   3.32930668  0.74449202 16.62581889
   1.33383693  2.21471736 17.15191729
   3.34590121  0.75023738  7.22722484
   1.34180439  2.21849600 26.36557542
   1.35909047  2.22518719 35.53376235
   1.44269132  2.23716401 44.79218639
   3.69055235  0.75747153 39.73257752
   3.68533426  0.75066879 30.55179115
   1.00634953  2.22419967  3.10422783
   3.69063456  0.74492691 21.30716266
   1.01616703  2.21599372 12.49967568
   3.69824508  0.74641915 11.92667616
   1.04035073  2.21565166 21.76336254
   3.69110664  0.75549474  2.54685301
   1.04881067  2.22180451 30.94444101
   1.06305382  2.22801926 40.12704703
   3.00436230  2.24349466 51.25713995
   2.98257467  2.24381968 55.58212087
   2.98414644  2.24188057 59.88838539
   2.98253905  2.23796689 64.20421720
   3.73518279  0.77196772 49.06124055
   3.76353817  0.77369915 53.43435432
   3.75764410  0.77288199 57.73490555
   3.75374500  0.76988148 62.04594575
   3.75087133  0.76506626 66.37235851
   0.64594897  0.77362669 51.47692518
   0.65162002  0.77323452 55.79324580
   0.65413356  0.77061140 60.10757136
   0.65285575  0.76612087 64.43082391
   1.44212698  2.24304195 49.29924684
   1.43463348  2.24400081 53.63357952
   1.42455547  2.24245100 57.95066006
   1.41906387  2.23888609 62.26837954
   1.40744700  2.23362224 66.59727319
   4.40938238  2.23898945 45.38755820
 


--------------------------------------------------------------------------------------------------------


 k-point  1 :   0.0000 0.0000 0.0000  plane waves:   16897
 k-point  2 :   0.5000 0.0000 0.0000  plane waves:   16958
 k-point  3 :   0.0000 0.3333-0.0000  plane waves:   17066
 k-point  4 :   0.5000 0.3333 0.0000  plane waves:   16946

 maximum and minimum number of plane-waves per node :      1734     1638

 maximum number of plane-waves:     17066
 maximum index in each direction: 
   IXMAX=    7   IYMAX=    4   IZMAX=  111
   IXMIN=   -8   IYMIN=   -5   IZMIN= -111

 WARNING: aliasing errors must be expected set NGX to  32 to avoid them
 WARNING: aliasing errors must be expected set NGY to  20 to avoid them
 WARNING: aliasing errors must be expected set NGZ to 446 to avoid them
 aliasing errors are usually negligible using standard VASP settings
 and one can safely disregard these warnings

 parallel 3D FFT for wavefunctions:
    minimum data exchange during FFTs selected (reduces bandwidth)
 parallel 3D FFT for charge:
    minimum data exchange during FFTs selected (reduces bandwidth)


 total amount of memory used by VASP on root node    51335. kBytes
========================================================================

   base      :      30000. kBytes
   nonl-proj :       5400. kBytes
   fftplans  :       1032. kBytes
   grid      :       2790. kBytes
   one-center:        311. kBytes
   wavefun   :      11802. kBytes
 
 Broyden mixing: mesh for mixing (old mesh)
   NGX = 15   NGY =  9   NGZ =223
  (NGX  = 48   NGY  = 28   NGZ  =672)
  gives a total of  30105 points

 initial charge density was supplied:
 charge density of overlapping atoms calculated
 number of electron     571.0000000 magnetization     120.0000000
 keeping initial charge density in first step


--------------------------------------------------------------------------------------------------------


 Maximum index for augmentation-charges          303 (set IRDMAX)


--------------------------------------------------------------------------------------------------------


 First call to EWALD:  gamma=   0.181
 Maximum number of real-space cells 5x 8x 1
 Maximum number of reciprocal cells 2x 1x16

 FEWALD executed in parallel
    FEWALD:  cpu time    0.00: real time    0.00


----------------------------------------- Iteration    1(   1)  ---------------------------------------


    POTLOK:  cpu time    0.05: real time    0.05
    SETDIJ:  cpu time    0.01: real time    0.01
     EDDAV:  cpu time    7.30: real time    7.31
       DOS:  cpu time    0.00: real time    0.00
    --------------------------------------------
      LOOP:  cpu time    7.37: real time    7.47

 eigenvalue-minimisations  :  6576
 total energy-change (2. order) : 0.7220987E+04  (-0.2050943E+05)
 number of electron     571.0000000 magnetization     120.0000000
 augmentation part      571.0000000 magnetization     120.0000000

 Free energy of the ion-electron system (eV)
  ---------------------------------------------------
  alpha Z        PSCENC =      2111.47823491
  Ewald energy   TEWEN  =    -28604.84679312
  -1/2 Hartree   DENC   =    -12181.20768552
  -exchange  EXHF       =         0.00000000
  -V(xc)+E(xc)   XCENC  =      1328.91189026
  PAW double counting   =     27278.96092844   -26863.34055171
  entropy T*S    EENTRO =        -0.01319536
  eigenvalues    EBANDS =      5703.34442972
  atomic energy  EATOM  =     38447.69961849
  ---------------------------------------------------
  free energy    TOTEN  =      7220.98687611 eV

  energy without entropy =     7221.00007147  energy(sigma->0) =     7220.99127456


--------------------------------------------------------------------------------------------------------




----------------------------------------- Iteration    1(   2)  ---------------------------------------


     EDDAV:  cpu time    7.43: real time    7.43
       DOS:  cpu time    0.00: real time    0.00
    --------------------------------------------
      LOOP:  cpu time    7.43: real time    7.52

 eigenvalue-minimisations  :  6720
 total energy-change (2. order) :-0.6878999E+04  (-0.6299861E+04)
 number of electron     571.0000000 magnetization     120.0000000
 augmentation part      571.0000000 magnetization     120.0000000

 Free energy of the ion-electron system (eV)
  ---------------------------------------------------
  alpha Z        PSCENC =      2111.47823491
  Ewald energy   TEWEN  =    -28604.84679312
  -1/2 Hartree   DENC   =    -12181.20768552
  -exchange  EXHF       =         0.00000000
  -V(xc)+E(xc)   XCENC  =      1328.91189026
  PAW double counting   =     27278.96092844   -26863.34055171
  entropy T*S    EENTRO =         0.00234408
  eigenvalues    EBANDS =     -1175.67016480
  atomic energy  EATOM  =     38447.69961849
  ---------------------------------------------------
  free energy    TOTEN  =       341.98782102 eV

  energy without entropy =      341.98547695  energy(sigma->0) =      341.98703966


--------------------------------------------------------------------------------------------------------




----------------------------------------- Iteration    1(   3)  ---------------------------------------


     EDDAV:  cpu time    7.51: real time    7.51
       DOS:  cpu time    0.00: real time    0.00
    --------------------------------------------
      LOOP:  cpu time    7.51: real time    7.61

 eigenvalue-minimisations  :  6840
 total energy-change (2. order) :-0.1133172E+04  (-0.1028626E+04)
 number of electron     571.0000000 magnetization     120.0000000
 augmentation part      571.0000000 magnetization     120.0000000

 Free energy of the ion-electron system (eV)
  ---------------------------------------------------
  alpha Z        PSCENC =      2111.47823491
  Ewald energy   TEWEN  =    -28604.84679312
  -1/2 Hartree   DENC   =    -12181.20768552
  -exchange  EXHF       =         0.00000000
  -V(xc)+E(xc)   XCENC  =      1328.91189026
  PAW double counting   =     27278.96092844   -26863.34055171
  entropy T*S    EENTRO =         0.01753295
  eigenvalues    EBANDS =     -2308.85759106
  atomic energy  EATOM  =     38447.69961849
  ---------------------------------------------------
  free energy    TOTEN  =      -791.18441637 eV

  energy without entropy =     -791.20194932  energy(sigma->0) =     -791.19026069


--------------------------------------------------------------------------------------------------------




----------------------------------------- Iteration    1(   4)  ---------------------------------------


     EDDAV:  cpu time    9.23: real time    9.24
       DOS:  cpu time    0.00: real time    0.00
    --------------------------------------------
      LOOP:  cpu time    9.23: real time    9.36

 eigenvalue-minimisations  :  8968
 total energy-change (2. order) :-0.7528249E+02  (-0.7382315E+02)
 number of electron     571.0000000 magnetization     120.0000000
 augmentation part      571.0000000 magnetization     120.0000000

 Free energy of the ion-electron system (eV)
  ---------------------------------------------------
  alpha Z        PSCENC =      2111.47823491
  Ewald energy   TEWEN  =    -28604.84679312
  -1/2 Hartree   DENC   =    -12181.20768552
  -exchange  EXHF       =         0.00000000
  -V(xc)+E(xc)   XCENC  =      1328.91189026
  PAW double counting   =     27278.96092844   -26863.34055171
  entropy T*S    EENTRO =         0.00589169
  eigenvalues    EBANDS =     -2384.12844223
  atomic energy  EATOM  =     38447.69961849
  ---------------------------------------------------
  free energy    TOTEN  =      -866.46690880 eV

  energy without entropy =     -866.47280048  energy(sigma->0) =     -866.46887269


--------------------------------------------------------------------------------------------------------




----------------------------------------- Iteration    1(   5)  ---------------------------------------


     EDDAV:  cpu time    9.51: real time    9.51
       DOS:  cpu time    0.00: real time    0.00
    CHARGE:  cpu time    0.20: real time    0.20
    MIXING:  cpu time    0.00: real time    0.00
    --------------------------------------------
      LOOP:  cpu time    9.71: real time    9.83

 eigenvalue-minimisations  :  9304
 total energy-change (2. order) :-0.1732858E+01  (-0.1728646E+01)
 number of electron     571.0000443 magnetization     119.6090634
 augmentation part      161.6138440 magnetization      84.3215079

 Broyden mixing:
  rms(total) = 0.10318E+02    rms(broyden)= 0.10311E+02
  rms(prec ) = 0.10405E+02
  weight for this iteration     100.00

 Free energy of the ion-electron system (eV)
  ---------------------------------------------------
  alpha Z        PSCENC =      2111.47823491
  Ewald energy   TEWEN  =    -28604.84679312
  -1/2 Hartree   DENC   =    -12181.20768552
  -exchange  EXHF       =         0.00000000
  -V(xc)+E(xc)   XCENC  =      1328.91189026
  PAW double counting   =     27278.96092844   -26863.34055171
  entropy T*S    EENTRO =         0.00479519
  eigenvalues    EBANDS =     -2385.86020413
  atomic energy  EATOM  =     38447.69961849
  ---------------------------------------------------
  free energy    TOTEN  =      -868.19976720 eV

  energy without entropy =     -868.20456239  energy(sigma->0) =     -868.20136559


--------------------------------------------------------------------------------------------------------




----------------------------------------- Iteration    1(   6)  ---------------------------------------


    POTLOK:  cpu time    0.05: real time    0.05
    SETDIJ:  cpu time    0.01: real time    0.01
     EDDAV:  cpu time    9.76: real time    9.77
       DOS:  cpu time    0.00: real time    0.00
    CHARGE:  cpu time    0.18: real time    0.18
    MIXING:  cpu time    0.00: real time    0.00
    --------------------------------------------
      LOOP:  cpu time   10.01: real time   10.23

 eigenvalue-minimisations  :  9600
 total energy-change (2. order) : 0.1276056E+03  (-0.1366982E+03)
 number of electron     571.0000078 magnetization     119.3719971
 augmentation part      192.0621499 magnetization      92.9301909

 Broyden mixing:
  rms(total) = 0.12376E+02    rms(broyden)= 0.12372E+02
  rms(prec ) = 0.12541E+02
  weight for this iteration     100.00

 eigenvalues of (default mixing * dielectric matrix)
  average eigenvalue GAMMA=   0.4480
  0.4480

 Free energy of the ion-electron system (eV)
  ---------------------------------------------------
  alpha Z        PSCENC =      2111.47823491
  Ewald energy   TEWEN  =    -28604.84679312
  -1/2 Hartree   DENC   =    -12506.37712220
  -exchange  EXHF       =         0.00000000
  -V(xc)+E(xc)   XCENC  =      1406.71323680
  PAW double counting   =     29476.82642661   -29026.06951984
  entropy T*S    EENTRO =         0.04983328
  eigenvalues    EBANDS =     -2046.06811654
  atomic energy  EATOM  =     38447.69961849
  ---------------------------------------------------
  free energy    TOTEN  =      -740.59420161 eV

  energy without entropy =     -740.64403489  energy(sigma->0) =     -740.61081270


--------------------------------------------------------------------------------------------------------




----------------------------------------- Iteration    1(   7)  ---------------------------------------


    POTLOK:  cpu time    0.05: real time    0.05
    SETDIJ:  cpu time    0.01: real time    0.01
     EDDAV:  cpu time    9.15: real time    9.15
       DOS:  cpu time    0.00: real time    0.00
    CHARGE:  cpu time    0.19: real time    0.19
    MIXING:  cpu time    0.00: real time    0.00
    --------------------------------------------
      LOOP:  cpu time    9.40: real time    9.52

 eigenvalue-minimisations  :  8872
 total energy-change (2. order) : 0.8946757E+02  (-0.4552917E+02)
 number of electron     571.0000313 magnetization     119.2519667
 augmentation part      162.1303184 magnetization      89.7052802

 Broyden mixing:
  rms(total) = 0.51135E+01    rms(broyden)= 0.51076E+01
  rms(prec ) = 0.54541E+01
  weight for this iteration     100.00

 eigenvalues of (default mixing * dielectric matrix)
  average eigenvalue GAMMA=   0.3587
  0.5092  0.2083

 Free energy of the ion-electron system (eV)
  ---------------------------------------------------
  alpha Z        PSCENC =      2111.47823491
  Ewald energy   TEWEN  =    -28604.84679312
  -1/2 Hartree   DENC   =    -12436.61113159
  -exchange  EXHF       =         0.00000000
  -V(xc)+E(xc)   XCENC  =      1366.13057695
  PAW double counting   =     29684.10388737   -29327.65515928
  entropy T*S    EENTRO =        -0.03548080
  eigenvalues    EBANDS =     -1891.39038873
  atomic energy  EATOM  =     38447.69961849
  ---------------------------------------------------
  free energy    TOTEN  =      -651.12663581 eV

  energy without entropy =     -651.09115501  energy(sigma->0) =     -651.11480888


--------------------------------------------------------------------------------------------------------




----------------------------------------- Iteration    1(   8)  ---------------------------------------


    POTLOK:  cpu time    0.05: real time    0.05
    SETDIJ:  cpu time    0.01: real time    0.01
     EDDAV:  cpu time    9.47: real time    9.48
       DOS:  cpu time    0.00: real time    0.00
    CHARGE:  cpu time    0.19: real time    0.19
    MIXING:  cpu time    0.00: real time    0.00
    --------------------------------------------
      LOOP:  cpu time    9.73: real time    9.85

 eigenvalue-minimisations  :  9304
 total energy-change (2. order) : 0.1022591E+02  (-0.9173363E+01)
 number of electron     571.0000319 magnetization     119.0892762
 augmentation part      163.5122950 magnetization      89.6388103

 Broyden mixing:
  rms(total) = 0.37935E+01    rms(broyden)= 0.37923E+01
  rms(prec ) = 0.38221E+01
  weight for this iteration     100.00

 eigenvalues of (default mixing * dielectric matrix)
  average eigenvalue GAMMA=   0.3854
  0.6200  0.2681  0.2681

 Free energy of the ion-electron system (eV)
  ---------------------------------------------------
  alpha Z        PSCENC =      2111.47823491
  Ewald energy   TEWEN  =    -28604.84679312
  -1/2 Hartree   DENC   =    -12405.55708686
  -exchange  EXHF       =         0.00000000
  -V(xc)+E(xc)   XCENC  =      1370.37390636
  PAW double counting   =     29870.84219664   -29517.62903880
  entropy T*S    EENTRO =         0.02861862
  eigenvalues    EBANDS =     -1913.29038005
  atomic energy  EATOM  =     38447.69961849
  ---------------------------------------------------
  free energy    TOTEN  =      -640.90072380 eV

  energy without entropy =     -640.92934242  energy(sigma->0) =     -640.91026334


--------------------------------------------------------------------------------------------------------




----------------------------------------- Iteration    1(   9)  ---------------------------------------


    POTLOK:  cpu time    0.05: real time    0.05
    SETDIJ:  cpu time    0.01: real time    0.01
     EDDAV:  cpu time    9.63: real time    9.64
       DOS:  cpu time    0.00: real time    0.00
    CHARGE:  cpu time    0.19: real time    0.19
    MIXING:  cpu time    0.00: real time    0.00
    --------------------------------------------
      LOOP:  cpu time    9.88: real time   10.00

 eigenvalue-minimisations  :  9448
 total energy-change (2. order) : 0.1059530E+02  (-0.1292203E+01)
 number of electron     571.0000301 magnetization     118.9443545
 augmentation part      164.9763822 magnetization      90.3376472

 Broyden mixing:
  rms(total) = 0.28089E+01    rms(broyden)= 0.28086E+01
  rms(prec ) = 0.28460E+01
  weight for this iteration     100.00

 eigenvalues of (default mixing * dielectric matrix)
  average eigenvalue GAMMA=   0.3998
  0.5186  0.4336  0.4336  0.2134

 Free energy of the ion-electron system (eV)
  ---------------------------------------------------
  alpha Z        PSCENC =      2111.47823491
  Ewald energy   TEWEN  =    -28604.84679312
  -1/2 Hartree   DENC   =    -12392.41232867
  -exchange  EXHF       =         0.00000000
  -V(xc)+E(xc)   XCENC  =      1376.44859054
  PAW double counting   =     30155.18106319   -29803.32494268
  entropy T*S    EENTRO =         0.00976643
  eigenvalues    EBANDS =     -1920.53862928
  atomic energy  EATOM  =     38447.69961849
  ---------------------------------------------------
  free energy    TOTEN  =      -630.30542020 eV

  energy without entropy =     -630.31518663  energy(sigma->0) =     -630.30867568


--------------------------------------------------------------------------------------------------------




----------------------------------------- Iteration    1(  10)  ---------------------------------------


    POTLOK:  cpu time    0.05: real time    0.05
    SETDIJ:  cpu time    0.01: real time    0.01
     EDDAV:  cpu time    9.50: real time    9.51
       DOS:  cpu time    0.00: real time    0.00
    CHARGE:  cpu time    0.19: real time    0.19
    MIXING:  cpu time    0.00: real time    0.00
    --------------------------------------------
      LOOP:  cpu time    9.76: real time    9.87

 eigenvalue-minimisations  :  9312
 total energy-change (2. order) : 0.3299684E+01  (-0.4808521E+00)
 number of electron     571.0000295 magnetization     118.3939895
 augmentation part      165.7211138 magnetization      90.2545480

 Broyden mixing:
  rms(total) = 0.23335E+01    rms(broyden)= 0.23334E+01
  rms(prec ) = 0.23622E+01
  weight for this iteration     100.00

 eigenvalues of (default mixing * dielectric matrix)
  average eigenvalue GAMMA=   0.5862
  0.9711  0.9711  0.4436  0.2726  0.2726

 Free energy of the ion-electron system (eV)
  ---------------------------------------------------
  alpha Z        PSCENC =      2111.47823491
  Ewald energy   TEWEN  =    -28604.84679312
  -1/2 Hartree   DENC   =    -12388.59547061
  -exchange  EXHF       =         0.00000000
  -V(xc)+E(xc)   XCENC  =      1381.00337093
  PAW double counting   =     30354.53432091   -30003.71664365
  entropy T*S    EENTRO =         0.02372730
  eigenvalues    EBANDS =     -1924.58610186
  atomic energy  EATOM  =     38447.69961849
  ---------------------------------------------------
  free energy    TOTEN  =      -627.00573670 eV

  energy without entropy =     -627.02946400  energy(sigma->0) =     -627.01364580


--------------------------------------------------------------------------------------------------------




----------------------------------------- Iteration    1(  11)  ---------------------------------------


    POTLOK:  cpu time    0.05: real time    0.05
    SETDIJ:  cpu time    0.01: real time    0.01
     EDDAV:  cpu time    9.61: real time    9.61
       DOS:  cpu time    0.00: real time    0.00
    CHARGE:  cpu time    0.19: real time    0.19
    MIXING:  cpu time    0.00: real time    0.00
    --------------------------------------------
      LOOP:  cpu time    9.87: real time   10.08

 eigenvalue-minimisations  :  9408
 total energy-change (2. order) : 0.8004774E+01  (-0.1208515E+01)
 number of electron     571.0000279 magnetization     118.0330564
 augmentation part      168.3922989 magnetization      91.5017362

 Broyden mixing:
  rms(total) = 0.16151E+01    rms(broyden)= 0.16139E+01
  rms(prec ) = 0.17420E+01
  weight for this iteration     100.00

 eigenvalues of (default mixing * dielectric matrix)
  average eigenvalue GAMMA=   0.6259
  1.2030  1.2030  0.3997  0.2444  0.3527  0.3527

 Free energy of the ion-electron system (eV)
  ---------------------------------------------------
  alpha Z        PSCENC =      2111.47823491
  Ewald energy   TEWEN  =    -28604.84679312
  -1/2 Hartree   DENC   =    -12370.75692257
  -exchange  EXHF       =         0.00000000
  -V(xc)+E(xc)   XCENC  =      1397.03021834
  PAW double counting   =     31004.89505116   -30657.89226075
  entropy T*S    EENTRO =         0.00475051
  eigenvalues    EBANDS =     -1946.61285996
  atomic energy  EATOM  =     38447.69961849
  ---------------------------------------------------
  free energy    TOTEN  =      -619.00096298 eV

  energy without entropy =     -619.00571349  energy(sigma->0) =     -619.00254648


--------------------------------------------------------------------------------------------------------




----------------------------------------- Iteration    1(  12)  ---------------------------------------


    POTLOK:  cpu time    0.05: real time    0.05
    SETDIJ:  cpu time    0.01: real time    0.01
     EDDAV:  cpu time    9.47: real time    9.48
       DOS:  cpu time    0.00: real time    0.00
    CHARGE:  cpu time    0.19: real time    0.19
    MIXING:  cpu time    0.00: real time    0.00
    --------------------------------------------
      LOOP:  cpu time    9.73: real time    9.85

 eigenvalue-minimisations  :  9296
 total energy-change (2. order) : 0.1990612E+01  (-0.1310326E+01)
 number of electron     571.0000267 magnetization     117.6549073
 augmentation part      169.4933422 magnetization      91.7689931

 Broyden mixing:
  rms(total) = 0.13704E+01    rms(broyden)= 0.13697E+01
  rms(prec ) = 0.13980E+01
  weight for this iteration     100.00

 eigenvalues of (default mixing * dielectric matrix)
  average eigenvalue GAMMA=   0.6535
  1.3924  1.3924  0.4464  0.4464  0.3728  0.2621  0.2621

 Free energy of the ion-electron system (eV)
  ---------------------------------------------------
  alpha Z        PSCENC =      2111.47823491
  Ewald energy   TEWEN  =    -28604.84679312
  -1/2 Hartree   DENC   =    -12367.20027577
  -exchange  EXHF       =         0.00000000
  -V(xc)+E(xc)   XCENC  =      1405.86800463
  PAW double counting   =     31354.52635188   -31010.89222964
  entropy T*S    EENTRO =         0.04887339
  eigenvalues    EBANDS =     -1953.69213618
  atomic energy  EATOM  =     38447.69961849
  ---------------------------------------------------
  free energy    TOTEN  =      -617.01035142 eV

  energy without entropy =     -617.05922481  energy(sigma->0) =     -617.02664255


--------------------------------------------------------------------------------------------------------




----------------------------------------- Iteration    1(  13)  ---------------------------------------


    POTLOK:  cpu time    0.05: real time    0.05
    SETDIJ:  cpu time    0.01: real time    0.01
     EDDAV:  cpu time    9.52: real time    9.53
       DOS:  cpu time    0.00: real time    0.00
    CHARGE:  cpu time    0.19: real time    0.19
    MIXING:  cpu time    0.00: real time    0.00
    --------------------------------------------
      LOOP:  cpu time    9.78: real time    9.90

 eigenvalue-minimisations  :  9304
 total energy-change (2. order) : 0.2388832E+00  (-0.2696830E+00)
 number of electron     571.0000258 magnetization     117.2940284
 augmentation part      170.3735322 magnetization      92.3902787

 Broyden mixing:
  rms(total) = 0.13762E+01    rms(broyden)= 0.13759E+01
  rms(prec ) = 0.14050E+01
  weight for this iteration     100.00

 eigenvalues of (default mixing * dielectric matrix)
  average eigenvalue GAMMA=   0.6987
  1.5364  1.5364  0.6110  0.6110  0.2489  0.3694  0.3382  0.3382

 Free energy of the ion-electron system (eV)
  ---------------------------------------------------
  alpha Z        PSCENC =      2111.47823491
  Ewald energy   TEWEN  =    -28604.84679312
  -1/2 Hartree   DENC   =    -12361.47546740
  -exchange  EXHF       =         0.00000000
  -V(xc)+E(xc)   XCENC  =      1413.10734885
  PAW double counting   =     31639.88813986   -31300.00607315
  entropy T*S    EENTRO =         0.05873771
  eigenvalues    EBANDS =     -1962.67521437
  atomic energy  EATOM  =     38447.69961849
  ---------------------------------------------------
  free energy    TOTEN  =      -616.77146822 eV

  energy without entropy =     -616.83020593  energy(sigma->0) =     -616.79104746


--------------------------------------------------------------------------------------------------------




----------------------------------------- Iteration    1(  14)  ---------------------------------------


    POTLOK:  cpu time    0.05: real time    0.05
    SETDIJ:  cpu time    0.01: real time    0.01
     EDDAV:  cpu time    9.52: real time    9.52
       DOS:  cpu time    0.00: real time    0.00
    CHARGE:  cpu time    0.19: real time    0.19
    MIXING:  cpu time    0.00: real time    0.00
    --------------------------------------------
      LOOP:  cpu time    9.77: real time    9.89

 eigenvalue-minimisations  :  9320
 total energy-change (2. order) :-0.5367178E+00  (-0.1887721E+00)
 number of electron     571.0000259 magnetization     117.0433442
 augmentation part      170.3569221 magnetization      92.4933243

 Broyden mixing:
  rms(total) = 0.12468E+01    rms(broyden)= 0.12467E+01
  rms(prec ) = 0.12600E+01
  weight for this iteration     100.00

 eigenvalues of (default mixing * dielectric matrix)
  average eigenvalue GAMMA=   0.7107
  1.5958  1.5958  0.7678  0.7678  0.3678  0.3678  0.3745  0.2529  0.3058

 Free energy of the ion-electron system (eV)
  ---------------------------------------------------
  alpha Z        PSCENC =      2111.47823491
  Ewald energy   TEWEN  =    -28604.84679312
  -1/2 Hartree   DENC   =    -12359.26142598
  -exchange  EXHF       =         0.00000000
  -V(xc)+E(xc)   XCENC  =      1415.98962845
  PAW double counting   =     31782.47291063   -31447.12187201
  entropy T*S    EENTRO =         0.05751808
  eigenvalues    EBANDS =     -1963.77600547
  atomic energy  EATOM  =     38447.69961849
  ---------------------------------------------------
  free energy    TOTEN  =      -617.30818602 eV

  energy without entropy =     -617.36570409  energy(sigma->0) =     -617.32735871


--------------------------------------------------------------------------------------------------------




----------------------------------------- Iteration    1(  15)  ---------------------------------------


    POTLOK:  cpu time    0.06: real time    0.06
    SETDIJ:  cpu time    0.01: real time    0.01
     EDDAV:  cpu time    9.17: real time    9.18
       DOS:  cpu time    0.00: real time    0.00
    CHARGE:  cpu time    0.18: real time    0.18
    MIXING:  cpu time    0.00: real time    0.00
    --------------------------------------------
      LOOP:  cpu time    9.43: real time    9.66

 eigenvalue-minimisations  :  8824
 total energy-change (2. order) :-0.3386811E-01  (-0.7768426E-01)
 number of electron     571.0000262 magnetization     116.8581412
 augmentation part      170.1652228 magnetization      92.3941736

 Broyden mixing:
  rms(total) = 0.10857E+01    rms(broyden)= 0.10857E+01
  rms(prec ) = 0.10940E+01
  weight for this iteration     100.00

 eigenvalues of (default mixing * dielectric matrix)
  average eigenvalue GAMMA=   0.7063
  1.6079  1.6079  0.8632  0.8632  0.4345  0.4345  0.2489  0.3687  0.3168  0.3168

 Free energy of the ion-electron system (eV)
  ---------------------------------------------------
  alpha Z        PSCENC =      2111.47823491
  Ewald energy   TEWEN  =    -28604.84679312
  -1/2 Hartree   DENC   =    -12358.66100322
  -exchange  EXHF       =         0.00000000
  -V(xc)+E(xc)   XCENC  =      1416.04283644
  PAW double counting   =     31811.39437284   -31478.81111662
  entropy T*S    EENTRO =         0.03918855
  eigenvalues    EBANDS =     -1961.67739240
  atomic energy  EATOM  =     38447.69961849
  ---------------------------------------------------
  free energy    TOTEN  =      -617.34205413 eV

  energy without entropy =     -617.38124268  energy(sigma->0) =     -617.35511698


--------------------------------------------------------------------------------------------------------




----------------------------------------- Iteration    1(  16)  ---------------------------------------


    POTLOK:  cpu time    0.05: real time    0.05
    SETDIJ:  cpu time    0.01: real time    0.01
     EDDAV:  cpu time    9.17: real time    9.18
       DOS:  cpu time    0.00: real time    0.00
    CHARGE:  cpu time    0.19: real time    0.19
    MIXING:  cpu time    0.00: real time    0.00
    --------------------------------------------
      LOOP:  cpu time    9.43: real time    9.55

 eigenvalue-minimisations  :  8896
 total energy-change (2. order) :-0.2935687E+00  (-0.2664462E-01)
 number of electron     571.0000263 magnetization     116.4405358
 augmentation part      170.0719538 magnetization      91.8828398

 Broyden mixing:
  rms(total) = 0.10264E+01    rms(broyden)= 0.10264E+01
  rms(prec ) = 0.10307E+01
  weight for this iteration     100.00

 eigenvalues of (default mixing * dielectric matrix)
  average eigenvalue GAMMA=   0.7134
  1.6650  1.6650  0.8926  0.8926  0.5649  0.5649  0.3470  0.3470  0.3512  0.2495
  0.3078

 Free energy of the ion-electron system (eV)
  ---------------------------------------------------
  alpha Z        PSCENC =      2111.47823491
  Ewald energy   TEWEN  =    -28604.84679312
  -1/2 Hartree   DENC   =    -12357.80471636
  -exchange  EXHF       =         0.00000000
  -V(xc)+E(xc)   XCENC  =      1415.36658865
  PAW double counting   =     31811.57948639   -31480.09784964
  entropy T*S    EENTRO =         0.05873526
  eigenvalues    EBANDS =     -1961.06892741
  atomic energy  EATOM  =     38447.69961849
  ---------------------------------------------------
  free energy    TOTEN  =      -617.63562283 eV

  energy without entropy =     -617.69435809  energy(sigma->0) =     -617.65520125


--------------------------------------------------------------------------------------------------------




----------------------------------------- Iteration    1(  17)  ---------------------------------------


    POTLOK:  cpu time    0.05: real time    0.05
    SETDIJ:  cpu time    0.01: real time    0.01
     EDDAV:  cpu time    9.56: real time    9.57
       DOS:  cpu time    0.00: real time    0.00
    CHARGE:  cpu time    0.19: real time    0.19
    MIXING:  cpu time    0.00: real time    0.00
    --------------------------------------------
      LOOP:  cpu time    9.82: real time    9.91

 eigenvalue-minimisations  :  9392
 total energy-change (2. order) :-0.7068598E+00  (-0.3635427E-01)
 number of electron     571.0000264 magnetization     116.0382967
 augmentation part      170.0050830 magnetization      91.5057408

 Broyden mixing:
  rms(total) = 0.96961E+00    rms(broyden)= 0.96954E+00
  rms(prec ) = 0.97385E+00
  weight for this iteration     100.00

 eigenvalues of (default mixing * dielectric matrix)
  average eigenvalue GAMMA=   0.6978
  1.7081  1.7081  0.9521  0.9521  0.5647  0.5647  0.3663  0.3663  0.3343  0.3343
  0.2491  0.2730

 Free energy of the ion-electron system (eV)
  ---------------------------------------------------
  alpha Z        PSCENC =      2111.47823491
  Ewald energy   TEWEN  =    -28604.84679312
  -1/2 Hartree   DENC   =    -12356.19476507
  -exchange  EXHF       =         0.00000000
  -V(xc)+E(xc)   XCENC  =      1414.60845268
  PAW double counting   =     31820.72856151   -31491.11633218
  entropy T*S    EENTRO =         0.06211734
  eigenvalues    EBANDS =     -1960.76157716
  atomic energy  EATOM  =     38447.69961849
  ---------------------------------------------------
  free energy    TOTEN  =      -618.34248259 eV

  energy without entropy =     -618.40459993  energy(sigma->0) =     -618.36318837


--------------------------------------------------------------------------------------------------------




----------------------------------------- Iteration    1(  18)  ---------------------------------------


    POTLOK:  cpu time    0.05: real time    0.05
    SETDIJ:  cpu time    0.01: real time    0.01
     EDDAV:  cpu time    9.14: real time    9.16
       DOS:  cpu time    0.00: real time    0.00
    CHARGE:  cpu time    0.18: real time    0.19
    MIXING:  cpu time    0.00: real time    0.00
    --------------------------------------------
      LOOP:  cpu time    9.40: real time    9.50

 eigenvalue-minimisations  :  8832
 total energy-change (2. order) :-0.8700926E+00  (-0.1893441E-01)
 number of electron     571.0000265 magnetization     114.8865633
 augmentation part      169.9146884 magnetization      90.3601295

 Broyden mixing:
  rms(total) = 0.92838E+00    rms(broyden)= 0.92834E+00
  rms(prec ) = 0.93294E+00
  weight for this iteration     100.00

 eigenvalues of (default mixing * dielectric matrix)
  average eigenvalue GAMMA=   0.7389
  1.7601  1.7052  1.0943  1.0943  0.7003  0.7003  0.4647  0.4647  0.3526  0.3526
  0.2495  0.3622  0.3054

 Free energy of the ion-electron system (eV)
  ---------------------------------------------------
  alpha Z        PSCENC =      2111.47823491
  Ewald energy   TEWEN  =    -28604.84679312
  -1/2 Hartree   DENC   =    -12353.75535506
  -exchange  EXHF       =         0.00000000
  -V(xc)+E(xc)   XCENC  =      1414.04957520
  PAW double counting   =     31819.61571544   -31491.24598686
  entropy T*S    EENTRO =         0.07116924
  eigenvalues    EBANDS =     -1962.27875344
  atomic energy  EATOM  =     38447.69961849
  ---------------------------------------------------
  free energy    TOTEN  =      -619.21257521 eV

  energy without entropy =     -619.28374445  energy(sigma->0) =     -619.23629829


--------------------------------------------------------------------------------------------------------




----------------------------------------- Iteration    1(  19)  ---------------------------------------


    POTLOK:  cpu time    0.05: real time    0.05
    SETDIJ:  cpu time    0.01: real time    0.01
     EDDAV:  cpu time    9.58: real time    9.58
       DOS:  cpu time    0.00: real time    0.00
    CHARGE:  cpu time    0.19: real time    0.19
    MIXING:  cpu time    0.00: real time    0.00
    --------------------------------------------
      LOOP:  cpu time    9.84: real time    9.94

 eigenvalue-minimisations  :  9360
 total energy-change (2. order) :-0.2022951E+01  (-0.5167788E-01)
 number of electron     571.0000266 magnetization     113.2918098
 augmentation part      169.7779179 magnetization      88.8304794

 Broyden mixing:
  rms(total) = 0.87177E+00    rms(broyden)= 0.87174E+00
  rms(prec ) = 0.87328E+00
  weight for this iteration     100.00

 eigenvalues of (default mixing * dielectric matrix)
  average eigenvalue GAMMA=   0.7734
  2.2004  1.4334  1.4334  1.0775  0.7486  0.7486  0.5911  0.5911  0.3619  0.3619
  0.3642  0.3642  0.2494  0.3013

 Free energy of the ion-electron system (eV)
  ---------------------------------------------------
  alpha Z        PSCENC =      2111.47823491
  Ewald energy   TEWEN  =    -28604.84679312
  -1/2 Hartree   DENC   =    -12347.14471467
  -exchange  EXHF       =         0.00000000
  -V(xc)+E(xc)   XCENC  =      1412.74061448
  PAW double counting   =     31817.61752756   -31491.53478897
  entropy T*S    EENTRO =         0.06041647
  eigenvalues    EBANDS =     -1967.30564112
  atomic energy  EATOM  =     38447.69961849
  ---------------------------------------------------
  free energy    TOTEN  =      -621.23552597 eV

  energy without entropy =     -621.29594245  energy(sigma->0) =     -621.25566480


--------------------------------------------------------------------------------------------------------




----------------------------------------- Iteration    1(  20)  ---------------------------------------


    POTLOK:  cpu time    0.05: real time    0.05
    SETDIJ:  cpu time    0.01: real time    0.01
     EDDAV:  cpu time    9.27: real time    9.28
       DOS:  cpu time    0.00: real time    0.00
    CHARGE:  cpu time    0.19: real time    0.19
    MIXING:  cpu time    0.00: real time    0.00
    --------------------------------------------
      LOOP:  cpu time    9.53: real time    9.64

 eigenvalue-minimisations  :  9024
 total energy-change (2. order) :-0.2640102E+01  (-0.7393860E-01)
 number of electron     571.0000269 magnetization     111.2430414
 augmentation part      169.7624780 magnetization      86.6382165

 Broyden mixing:
  rms(total) = 0.83270E+00    rms(broyden)= 0.83266E+00
  rms(prec ) = 0.85525E+00
  weight for this iteration     100.00

 eigenvalues of (default mixing * dielectric matrix)
  average eigenvalue GAMMA=   0.8089
  2.5368  1.5896  1.5896  1.0043  0.8582  0.8582  0.6316  0.6316  0.4041  0.4041
  0.3585  0.3585  0.2494  0.3587  0.2995

 Free energy of the ion-electron system (eV)
  ---------------------------------------------------
  alpha Z        PSCENC =      2111.47823491
  Ewald energy   TEWEN  =    -28604.84679312
  -1/2 Hartree   DENC   =    -12340.54741842
  -exchange  EXHF       =         0.00000000
  -V(xc)+E(xc)   XCENC  =      1410.40653513
  PAW double counting   =     31815.81384120   -31491.82289738
  entropy T*S    EENTRO =         0.05703444
  eigenvalues    EBANDS =     -1972.11378366
  atomic energy  EATOM  =     38447.69961849
  ---------------------------------------------------
  free energy    TOTEN  =      -623.87562842 eV

  energy without entropy =     -623.93266285  energy(sigma->0) =     -623.89463989


--------------------------------------------------------------------------------------------------------




----------------------------------------- Iteration    1(  21)  ---------------------------------------


    POTLOK:  cpu time    0.05: real time    0.06
    SETDIJ:  cpu time    0.01: real time    0.01
     EDDAV:  cpu time    9.26: real time    9.27
       DOS:  cpu time    0.00: real time    0.00
    CHARGE:  cpu time    0.19: real time    0.19
    MIXING:  cpu time    0.00: real time    0.00
    --------------------------------------------
      LOOP:  cpu time    9.52: real time    9.73

 eigenvalue-minimisations  :  9032
 total energy-change (2. order) :-0.3313450E+01  (-0.1713554E+00)
 number of electron     571.0000272 magnetization     107.5137745
 augmentation part      169.5877019 magnetization      83.1799846

 Broyden mixing:
  rms(total) = 0.77698E+00    rms(broyden)= 0.77687E+00
  rms(prec ) = 0.78435E+00
  weight for this iteration     100.00

 eigenvalues of (default mixing * dielectric matrix)
  average eigenvalue GAMMA=   0.8603
  3.2262  1.8099  1.8099  0.9631  0.9631  0.6833  0.6833  0.5818  0.5818  0.4674
  0.3596  0.3596  0.2494  0.3641  0.3641  0.2988

 Free energy of the ion-electron system (eV)
  ---------------------------------------------------
  alpha Z        PSCENC =      2111.47823491
  Ewald energy   TEWEN  =    -28604.84679312
  -1/2 Hartree   DENC   =    -12336.24328639
  -exchange  EXHF       =         0.00000000
  -V(xc)+E(xc)   XCENC  =      1408.06369357
  PAW double counting   =     31812.36533650   -31490.53388272
  entropy T*S    EENTRO =         0.08469134
  eigenvalues    EBANDS =     -1975.25669067
  atomic energy  EATOM  =     38447.69961849
  ---------------------------------------------------
  free energy    TOTEN  =      -627.18907808 eV

  energy without entropy =     -627.27376943  energy(sigma->0) =     -627.21730853


--------------------------------------------------------------------------------------------------------




----------------------------------------- Iteration    1(  22)  ---------------------------------------


    POTLOK:  cpu time    0.06: real time    0.06
    SETDIJ:  cpu time    0.01: real time    0.01
     EDDAV:  cpu time    8.90: real time    8.90
       DOS:  cpu time    0.00: real time    0.00
    CHARGE:  cpu time    0.19: real time    0.19
    MIXING:  cpu time    0.00: real time    0.00
    --------------------------------------------
      LOOP:  cpu time    9.17: real time    9.27

 eigenvalue-minimisations  :  8576
 total energy-change (2. order) :-0.5707906E+01  (-0.3368352E+00)
 number of electron     571.0000273 magnetization     102.5978406
 augmentation part      169.3866000 magnetization      78.4037976

 Broyden mixing:
  rms(total) = 0.68151E+00    rms(broyden)= 0.68146E+00
  rms(prec ) = 0.71097E+00
  weight for this iteration     100.00

 eigenvalues of (default mixing * dielectric matrix)
  average eigenvalue GAMMA=   0.9464
  4.3774  1.9331  1.9331  1.0301  1.0301  0.7313  0.7313  0.6938  0.6174  0.6174
  0.2494  0.3609  0.3609  0.3871  0.3871  0.2978  0.3498

 Free energy of the ion-electron system (eV)
  ---------------------------------------------------
  alpha Z        PSCENC =      2111.47823491
  Ewald energy   TEWEN  =    -28604.84679312
  -1/2 Hartree   DENC   =    -12325.83112931
  -exchange  EXHF       =         0.00000000
  -V(xc)+E(xc)   XCENC  =      1403.51515486
  PAW double counting   =     31784.92944163   -31465.21372077
  entropy T*S    EENTRO =         0.06767729
  eigenvalues    EBANDS =     -1984.69546811
  atomic energy  EATOM  =     38447.69961849
  ---------------------------------------------------
  free energy    TOTEN  =      -632.89698413 eV

  energy without entropy =     -632.96466142  energy(sigma->0) =     -632.91954323


--------------------------------------------------------------------------------------------------------




----------------------------------------- Iteration    1(  23)  ---------------------------------------


    POTLOK:  cpu time    0.05: real time    0.05
    SETDIJ:  cpu time    0.01: real time    0.01
     EDDAV:  cpu time    9.03: real time    9.04
       DOS:  cpu time    0.00: real time    0.00
    CHARGE:  cpu time    0.19: real time    0.19
    MIXING:  cpu time    0.00: real time    0.00
    --------------------------------------------
      LOOP:  cpu time    9.28: real time    9.43

 eigenvalue-minimisations  :  8688
 total energy-change (2. order) :-0.5622507E+01  (-0.5830653E+00)
 number of electron     571.0000275 magnetization      98.3240567
 augmentation part      169.0894641 magnetization      74.3663844

 Broyden mixing:
  rms(total) = 0.61698E+00    rms(broyden)= 0.61683E+00
  rms(prec ) = 0.62380E+00
  weight for this iteration     100.00

 eigenvalues of (default mixing * dielectric matrix)
  average eigenvalue GAMMA=   1.0801
  6.5768  2.1226  2.1226  1.0970  1.0970  0.8213  0.7052  0.7052  0.6546  0.6546
  0.5085  0.2494  0.3611  0.3611  0.3805  0.3805  0.2973  0.3455

 Free energy of the ion-electron system (eV)
  ---------------------------------------------------
  alpha Z        PSCENC =      2111.47823491
  Ewald energy   TEWEN  =    -28604.84679312
  -1/2 Hartree   DENC   =    -12313.37350613
  -exchange  EXHF       =         0.00000000
  -V(xc)+E(xc)   XCENC  =      1398.36265524
  PAW double counting   =     31700.40050393   -31378.71200397
  entropy T*S    EENTRO =         0.06923844
  eigenvalues    EBANDS =     -1999.59743863
  atomic energy  EATOM  =     38447.69961849
  ---------------------------------------------------
  free energy    TOTEN  =      -638.51949085 eV

  energy without entropy =     -638.58872929  energy(sigma->0) =     -638.54257033


--------------------------------------------------------------------------------------------------------




----------------------------------------- Iteration    1(  24)  ---------------------------------------


    POTLOK:  cpu time    0.05: real time    0.05
    SETDIJ:  cpu time    0.01: real time    0.01
     EDDAV:  cpu time    9.17: real time    9.18
       DOS:  cpu time    0.00: real time    0.00
    CHARGE:  cpu time    0.19: real time    0.19
    MIXING:  cpu time    0.00: real time    0.00
    --------------------------------------------
      LOOP:  cpu time    9.43: real time    9.53

 eigenvalue-minimisations  :  8888
 total energy-change (2. order) :-0.2111014E+01  (-0.2310988E+00)
 number of electron     571.0000273 magnetization      94.3032180
 augmentation part      169.1186151 magnetization      70.5515813

 Broyden mixing:
  rms(total) = 0.41553E+00    rms(broyden)= 0.41544E+00
  rms(prec ) = 0.41833E+00
  weight for this iteration     100.00

 eigenvalues of (default mixing * dielectric matrix)
  average eigenvalue GAMMA=   1.4292
 13.0424  2.1149  2.1149  1.2198  1.2198  0.9991  0.9991  0.6834  0.6834  0.6010
  0.6010  0.4891  0.2494  0.3610  0.3610  0.3861  0.3861  0.2976  0.3464

 Free energy of the ion-electron system (eV)
  ---------------------------------------------------
  alpha Z        PSCENC =      2111.47823491
  Ewald energy   TEWEN  =    -28604.84679312
  -1/2 Hartree   DENC   =    -12302.08487081
  -exchange  EXHF       =         0.00000000
  -V(xc)+E(xc)   XCENC  =      1395.04366202
  PAW double counting   =     31632.44402640   -31306.64211656
  entropy T*S    EENTRO =         0.05072853
  eigenvalues    EBANDS =     -2013.77299471
  atomic energy  EATOM  =     38447.69961849
  ---------------------------------------------------
  free energy    TOTEN  =      -640.63050485 eV

  energy without entropy =     -640.68123338  energy(sigma->0) =     -640.64741436


--------------------------------------------------------------------------------------------------------




----------------------------------------- Iteration    1(  25)  ---------------------------------------


    POTLOK:  cpu time    0.05: real time    0.05
    SETDIJ:  cpu time    0.01: real time    0.01
     EDDAV:  cpu time    9.50: real time    9.50
       DOS:  cpu time    0.00: real time    0.00
    CHARGE:  cpu time    0.19: real time    0.19
    MIXING:  cpu time    0.00: real time    0.00
    --------------------------------------------
      LOOP:  cpu time    9.75: real time    9.96

 eigenvalue-minimisations  :  9280
 total energy-change (2. order) :-0.2711473E+00  (-0.5973916E-01)
 number of electron     571.0000272 magnetization      92.8588629
 augmentation part      169.0370076 magnetization      69.1742977

 Broyden mixing:
  rms(total) = 0.38687E+00    rms(broyden)= 0.38680E+00
  rms(prec ) = 0.39137E+00
  weight for this iteration     100.00

 eigenvalues of (default mixing * dielectric matrix)
  average eigenvalue GAMMA=   2.0375
 25.3509  2.3851  2.3851  1.2095  1.2095  1.0467  1.0467  0.6899  0.6899  0.6510
  0.6510  0.5277  0.5277  0.2494  0.3611  0.3611  0.3823  0.3823  0.2975  0.3459

 Free energy of the ion-electron system (eV)
  ---------------------------------------------------
  alpha Z        PSCENC =      2111.47823491
  Ewald energy   TEWEN  =    -28604.84679312
  -1/2 Hartree   DENC   =    -12294.32181949
  -exchange  EXHF       =         0.00000000
  -V(xc)+E(xc)   XCENC  =      1392.53423894
  PAW double counting   =     31580.00288502   -31253.03031303
  entropy T*S    EENTRO =         0.04853686
  eigenvalues    EBANDS =     -2020.46624076
  atomic energy  EATOM  =     38447.69961849
  ---------------------------------------------------
  free energy    TOTEN  =      -640.90165218 eV

  energy without entropy =     -640.95018904  energy(sigma->0) =     -640.91783113


--------------------------------------------------------------------------------------------------------




----------------------------------------- Iteration    1(  26)  ---------------------------------------


    POTLOK:  cpu time    0.05: real time    0.05
    SETDIJ:  cpu time    0.01: real time    0.01
     EDDAV:  cpu time    9.58: real time    9.58
       DOS:  cpu time    0.00: real time    0.00
    CHARGE:  cpu time    0.19: real time    0.19
    MIXING:  cpu time    0.00: real time    0.00
    --------------------------------------------
      LOOP:  cpu time    9.83: real time   10.05

 eigenvalue-minimisations  :  9376
 total energy-change (2. order) :-0.1302457E+00  (-0.3361917E-01)
 number of electron     571.0000272 magnetization      92.0176651
 augmentation part      169.1457043 magnetization      68.4475735

 Broyden mixing:
  rms(total) = 0.20484E+00    rms(broyden)= 0.20448E+00
  rms(prec ) = 0.20898E+00
  weight for this iteration     100.00

 eigenvalues of (default mixing * dielectric matrix)
  average eigenvalue GAMMA=   2.6187
 38.5027  2.5085  2.5085  1.3681  1.3681  1.0223  1.0223  0.6948  0.6948  0.6518
  0.6518  0.5925  0.5925  0.2494  0.3611  0.3611  0.4301  0.3846  0.3846  0.2975
  0.3456

 Free energy of the ion-electron system (eV)
  ---------------------------------------------------
  alpha Z        PSCENC =      2111.47823491
  Ewald energy   TEWEN  =    -28604.84679312
  -1/2 Hartree   DENC   =    -12298.37981381
  -exchange  EXHF       =         0.00000000
  -V(xc)+E(xc)   XCENC  =      1392.36427517
  PAW double counting   =     31582.50165435   -31253.52790623
  entropy T*S    EENTRO =         0.04899868
  eigenvalues    EBANDS =     -2018.37016634
  atomic energy  EATOM  =     38447.69961849
  ---------------------------------------------------
  free energy    TOTEN  =      -641.03189790 eV

  energy without entropy =     -641.08089658  energy(sigma->0) =     -641.04823079


--------------------------------------------------------------------------------------------------------




[...]
   -.167E+02 0.125E-01 0.131E+03   0.168E+02 -.119E-01 -.132E+03   -.135E+00 0.568E-04 0.931E+00   -.391E-02 -.291E-03 0.204E+00
   -.154E+02 0.109E-01 0.221E+03   0.156E+02 -.109E-01 -.222E+03   -.208E+00 -.358E-03 0.905E+00   -.574E-02 0.147E-03 0.817E-01
   -.100E+02 -.170E+00 0.324E+03   0.968E+01 0.158E+00 -.325E+03   0.360E+00 0.119E-01 0.108E+01   -.473E-03 0.223E-04 0.595E-01
   -.105E+02 0.698E-01 0.309E+03   0.104E+02 -.647E-01 -.307E+03   0.133E+00 -.634E-02 -.141E+01   -.161E-02 0.390E-03 0.376E-01
   -.738E+00 0.185E-01 0.183E+03   0.716E+00 -.194E-01 -.183E+03   0.237E-01 -.400E-03 0.466E-01   -.760E-03 0.493E-03 -.149E-01
   -.427E+00 0.223E-01 0.945E+01   0.438E+00 -.235E-01 -.939E+01   -.954E-02 0.288E-03 -.212E-01   -.948E-03 0.281E-03 -.323E-01
   -.276E+00 0.374E-01 -.165E+03   0.282E+00 -.383E-01 0.165E+03   -.123E-01 0.137E-03 0.823E-03   0.314E-02 0.240E-03 -.752E-01
   -.248E+00 0.541E-01 -.330E+03   0.263E+00 -.549E-01 0.330E+03   -.310E-01 0.365E-03 0.461E-02   0.100E-01 0.957E-04 -.146E+00
   0.250E+01 0.376E-01 0.261E+03   -.254E+01 -.376E-01 -.261E+03   0.352E-01 -.154E-02 -.234E+00   -.133E-02 0.549E-03 -.264E-02
   0.763E+00 0.171E-01 0.983E+02   -.752E+00 -.183E-01 -.982E+02   -.117E-01 0.145E-03 -.288E-01   0.748E-03 0.349E-03 -.211E-01
   0.515E+00 0.312E-01 -.784E+02   -.528E+00 -.322E-01 0.785E+02   0.102E-01 0.107E-03 -.345E-02   0.727E-03 0.278E-03 -.505E-01
   0.996E+00 0.416E-01 -.249E+03   -.101E+01 -.426E-01 0.249E+03   0.123E-01 0.416E-03 0.298E-02   -.210E-02 0.180E-03 -.107E+00
   0.431E+01 0.495E-01 -.408E+03   -.427E+01 -.505E-01 0.408E+03   -.277E-01 0.904E-03 -.614E-01   -.500E-02 0.330E-04 -.177E+00
   0.194E+02 -.268E+00 0.287E+03   -.205E+02 0.448E+00 -.297E+03   0.113E+01 -.181E+00 0.100E+02   -.132E-01 -.149E-03 0.384E-01
   0.147E+02 -.822E-01 0.201E+03   -.135E+02 0.118E+00 -.213E+03   -.125E+01 -.359E-01 0.111E+02   0.474E-02 -.233E-04 0.108E+00
   -.221E+01 -.743E-01 -.415E+03   0.303E+00 0.116E+00 0.426E+03   0.189E+01 -.423E-01 -.106E+02   -.258E-02 0.289E-04 -.174E+00
   0.186E+02 -.650E-01 0.117E+03   -.188E+02 0.925E-01 -.127E+03   0.207E+00 -.272E-01 0.979E+01   0.422E-02 0.157E-03 0.170E+00
   -.336E+02 -.542E-01 -.218E+03   0.376E+02 0.858E-01 0.223E+03   -.398E+01 -.314E-01 -.447E+01   -.600E-02 0.178E-03 -.139E+00
   0.311E+02 0.668E-02 -.357E+02   -.351E+02 -.154E-01 0.299E+02   0.399E+01 0.893E-02 0.574E+01   0.419E-02 0.189E-03 -.294E-01
   -.256E+02 0.741E-02 -.436E+02   0.267E+02 -.150E-01 0.515E+02   -.106E+01 0.790E-02 -.795E+01   -.367E-02 0.224E-03 0.689E-01
   0.361E+02 0.756E-01 -.243E+03   -.411E+02 -.111E+00 0.238E+03   0.500E+01 0.359E-01 0.464E+01   0.186E-02 0.146E-03 -.190E+00
   -.170E+02 0.499E-01 0.583E+02   0.158E+02 -.800E-01 -.479E+02   0.118E+01 0.302E-01 -.106E+02   -.251E-02 0.936E-04 0.188E+00
   -.145E+02 0.471E-01 0.128E+03   0.129E+02 -.777E-01 -.117E+03   0.164E+01 0.304E-01 -.109E+02   -.651E-03 -.534E-04 0.723E-01
   -.295E+02 0.570E-01 0.218E+03   0.332E+02 -.116E+00 -.205E+03   -.375E+01 0.588E-01 -.132E+02   0.650E-02 -.146E-03 0.574E-01
   0.514E+01 -.145E+00 0.301E+03   -.118E+02 0.225E+00 -.306E+03   0.666E+01 -.804E-01 0.496E+01   -.148E-02 -.154E-03 0.550E-01
   -.150E+02 -.753E-01 0.237E+03   0.137E+02 0.109E+00 -.249E+03   0.128E+01 -.339E-01 0.113E+02   -.716E-03 -.202E-04 0.663E-01
   -.153E+02 -.768E-01 0.166E+03   0.144E+02 0.112E+00 -.177E+03   0.829E+00 -.357E-01 0.108E+02   -.311E-02 -.459E-05 0.184E+00
   0.327E+02 -.749E-01 -.326E+03   -.364E+02 0.119E+00 0.331E+03   0.378E+01 -.444E-01 -.476E+01   0.732E-02 0.111E-03 -.189E+00
   -.231E+02 -.296E-01 0.523E+02   0.248E+02 0.397E-01 -.606E+02   -.173E+01 -.974E-02 0.823E+01   -.438E-02 0.212E-03 0.792E-01
   0.314E+02 -.316E-01 -.122E+03   -.344E+02 0.458E-01 0.128E+03   0.301E+01 -.139E-01 -.564E+01   0.613E-02 0.161E-03 -.425E-01
   -.355E+02 0.462E-01 -.137E+03   0.407E+02 -.706E-01 0.133E+03   -.515E+01 0.245E-01 0.443E+01   -.308E-02 0.164E-03 -.130E+00
   0.195E+02 0.333E-01 0.140E+02   -.191E+02 -.561E-01 -.451E+01   -.443E+00 0.231E-01 -.969E+01   0.185E-02 0.193E-03 0.166E+00
   -.405E+02 0.933E-01 -.339E+03   0.435E+02 -.134E+00 0.333E+03   -.293E+01 0.409E-01 0.626E+01   0.201E-02 0.599E-04 -.182E+00
   0.143E+02 0.404E-01 0.917E+02   -.128E+02 -.689E-01 -.807E+02   -.155E+01 0.283E-01 -.111E+02   -.184E-02 -.293E-04 0.116E+00
   0.121E+02 0.114E+00 0.183E+03   -.944E+01 -.224E+00 -.173E+03   -.264E+01 0.110E+00 -.972E+01   0.679E-02 -.607E-04 0.488E-01
   -.166E+03 0.393E+00 0.241E+03   0.187E+03 -.550E+00 -.241E+03   -.214E+02 0.157E+00 -.104E+00   0.115E-01 -.105E-03 0.731E-01
   -.180E+03 0.412E-01 0.128E+03   0.214E+03 -.610E-01 -.121E+03   -.340E+02 0.196E-01 -.672E+01   -.212E-02 -.416E-04 0.906E-01
   -.182E+03 0.386E-01 0.552E+02   0.216E+03 -.584E-01 -.491E+02   -.341E+02 0.200E-01 -.631E+01   -.228E-02 0.134E-03 0.188E+00
   0.189E+03 0.442E-01 -.201E+03   -.223E+03 -.630E-01 0.196E+03   0.340E+02 0.189E-01 0.468E+01   0.390E-02 0.144E-03 -.169E+00
   -.188E+03 -.117E-01 -.677E+02   0.222E+03 0.121E-01 0.726E+02   -.340E+02 -.204E-05 -.492E+01   -.352E-02 0.181E-03 0.159E-01
   0.186E+03 -.136E-01 -.320E+01   -.220E+03 0.140E-01 -.214E+01   0.341E+02 -.886E-04 0.531E+01   0.375E-02 0.181E-03 0.232E-01
   -.189E+03 -.509E-01 -.262E+03   0.223E+03 0.737E-01 0.266E+03   -.340E+02 -.227E-01 -.421E+01   0.688E-03 0.129E-03 -.169E+00
   0.181E+03 -.723E-01 0.126E+03   -.215E+03 0.955E-01 -.132E+03   0.341E+02 -.230E-01 0.653E+01   0.206E-02 0.643E-04 0.186E+00
   0.180E+03 -.920E-01 0.200E+03   -.214E+03 0.119E+00 -.207E+03   0.340E+02 -.269E-01 0.677E+01   0.897E-03 -.719E-04 0.873E-01
   0.165E+03 -.237E+00 0.301E+03   -.184E+03 0.334E+00 -.309E+03   0.199E+02 -.974E-01 0.782E+01   -.113E-01 -.160E-03 0.707E-01
   0.179E+03 0.346E-01 0.166E+03   -.212E+03 -.483E-01 -.159E+03   0.333E+02 0.135E-01 -.702E+01   -.312E-02 -.234E-04 0.478E-01
   0.180E+03 0.295E-01 0.946E+02   -.214E+03 -.438E-01 -.879E+02   0.340E+02 0.141E-01 -.685E+01   -.394E-02 -.156E-04 0.159E+00
   -.188E+03 0.752E-01 -.305E+03   0.222E+03 -.104E+00 0.300E+03   -.336E+02 0.286E-01 0.524E+01   -.319E-02 0.972E-04 -.195E+00
   0.185E+03 0.128E-01 0.314E+01   -.219E+03 -.228E-01 0.264E+01   0.340E+02 0.103E-01 -.589E+01   0.431E-02 0.184E-03 0.124E+00
   -.188E+03 0.293E-01 -.972E+02   0.222E+03 -.433E-01 0.925E+02   -.341E+02 0.143E-01 0.473E+01   -.414E-02 0.147E-03 -.839E-01
   0.189E+03 -.511E-01 -.158E+03   -.224E+03 0.683E-01 0.162E+03   0.341E+02 -.170E-01 -.429E+01   0.313E-02 0.149E-03 -.902E-01
   -.184E+03 -.444E-01 0.708E+02   0.218E+03 0.558E-01 -.772E+02   -.340E+02 -.111E-01 0.621E+01   -.420E-02 0.151E-03 0.130E+00
   0.187E+03 -.773E-01 -.369E+03   -.221E+03 0.113E+00 0.374E+03   0.340E+02 -.357E-01 -.434E+01   0.346E-02 0.565E-04 -.191E+00
   -.180E+03 -.639E-01 0.166E+03   0.214E+03 0.834E-01 -.173E+03   -.340E+02 -.196E-01 0.699E+01   0.429E-02 -.487E-04 0.147E+00
   -.179E+03 -.141E+00 0.239E+03   0.213E+03 0.156E+00 -.247E+03   -.335E+02 -.150E-01 0.736E+01   0.264E-02 0.283E-04 0.469E-01
   -.138E+02 0.107E-01 0.162E+03   0.126E+02 -.166E-01 -.152E+03   0.113E+01 0.529E-02 -.102E+02   -.227E-02 -.221E-03 -.130E-01
   -.140E+02 -.166E-01 0.142E+02   0.111E+02 0.260E-01 -.253E+01   0.292E+01 -.988E-02 -.117E+02   0.240E-02 -.148E-03 -.189E-01
   -.140E+02 -.439E-01 -.136E+03   0.110E+02 0.675E-01 0.148E+03   0.306E+01 -.240E-01 -.115E+02   0.157E-02 -.117E-03 -.473E-01
   -.136E+02 -.661E-01 -.280E+03   0.104E+02 0.102E+00 0.291E+03   0.328E+01 -.361E-01 -.113E+02   0.871E-04 -.697E-04 -.995E-01
   0.172E+02 0.586E-01 0.219E+03   -.189E+02 -.105E+00 -.208E+03   0.177E+01 0.460E-01 -.104E+02   0.486E-02 -.201E-03 0.857E-02
   0.142E+02 -.552E-02 0.900E+02   -.113E+02 0.987E-02 -.782E+02   -.293E+01 -.491E-02 -.118E+02   -.357E-03 -.209E-03 -.167E-01
   0.140E+02 -.317E-01 -.614E+02   -.110E+02 0.493E-01 0.730E+02   -.302E+01 -.180E-01 -.116E+02   -.239E-02 -.127E-03 -.297E-01
   0.144E+02 -.573E-01 -.209E+03   -.113E+02 0.874E-01 0.221E+03   -.313E+01 -.305E-01 -.115E+02   -.188E-02 -.987E-04 -.695E-01
   0.137E+02 -.726E-01 -.349E+03   -.101E+02 0.113E+00 0.361E+03   -.359E+01 -.401E-01 -.119E+02   0.323E-02 -.274E-04 -.136E+00
   -.143E+02 -.342E-01 0.227E+03   0.104E+02 0.508E-01 -.239E+03   0.392E+01 -.172E-01 0.118E+02   0.414E-02 -.221E-03 -.135E-01
   -.142E+02 0.900E-02 0.775E+02   0.111E+02 -.106E-01 -.890E+02   0.308E+01 0.111E-02 0.116E+02   -.125E-03 -.146E-03 -.208E-01
   -.147E+02 0.484E-01 -.730E+02   0.121E+02 -.641E-01 0.616E+02   0.255E+01 0.153E-01 0.114E+02   -.107E-02 -.120E-03 -.488E-01
   -.155E+02 0.812E-01 -.217E+03   0.134E+02 -.108E+00 0.206E+03   0.211E+01 0.262E-01 0.112E+02   -.234E-02 -.539E-04 -.102E+00
   0.107E+02 -.759E-01 0.291E+03   -.746E+01 0.120E+00 -.302E+03   -.324E+01 -.450E-01 0.109E+02   -.496E-02 -.255E-03 0.106E-01
   0.128E+02 -.142E-01 0.154E+03   -.912E+01 0.202E-01 -.166E+03   -.372E+01 -.655E-02 0.120E+02   -.146E-02 -.181E-03 -.179E-01
   0.146E+02 0.270E-01 0.172E+01   -.119E+02 -.351E-01 -.131E+02   -.275E+01 0.766E-02 0.115E+02   0.309E-03 -.143E-03 -.318E-01
   0.153E+02 0.649E-01 -.146E+03   -.129E+02 -.850E-01 0.135E+03   -.235E+01 0.198E-01 0.113E+02   0.263E-03 -.958E-04 -.732E-01
   0.174E+02 0.834E-01 -.286E+03   -.153E+02 -.113E+00 0.275E+03   -.210E+01 0.293E-01 0.116E+02   -.314E-02 0.190E-04 -.142E+00
   -.612E+01 -.792E-02 0.488E+02   0.646E+01 0.559E-02 -.491E+02   -.340E+00 0.157E-02 0.334E+00   0.332E-03 -.848E-06 0.105E-01
 -----------------------------------------------------------------------------------------------
   -.243E+01 0.165E+00 -.880E+00   -.995E-13 -.943E-13 -.417E-11   0.243E+01 -.178E+00 0.919E+00   0.309E-02 0.429E-03 -.418E-01
 
 
 POSITION                                       TOTAL-FORCE (eV/Angst)
 -----------------------------------------------------------------------------------
      0.31994      0.75862     41.17214        -0.001285     -0.000023      0.014225
      0.31046      0.75192     31.99047         0.006219     -0.000075     -0.027150
      4.49830      2.22670      1.54478        -0.003848      0.000147      0.011972
      0.27343      0.74569     22.78643         0.004368      0.000658     -0.029213
      4.52261      2.21736     10.94016        -0.010738      0.000586      0.017609
      0.19485      0.74562     13.47923         0.008826      0.000549     -0.001790
      4.46318      2.21538     20.28011        -0.011338      0.000729     -0.020993
      0.18891      0.75362      4.09083         0.010308      0.000334      0.032045
      4.42607      2.22103     29.50555        -0.006223      0.000059     -0.014785
      4.43248      2.22781     38.68219        -0.002476     -0.000049     -0.002450
      2.15349      0.76837     45.90447         0.005019     -0.000574      0.002289
      2.10115      0.75548     36.58047        -0.006838     -0.000118      0.006035
      2.09507      0.74868     27.40084        -0.004393      0.000355     -0.024429
      2.52167      2.22124      6.24248         0.014213      0.000473      0.023709
      2.13159      0.74456     18.15122        -0.005516      0.000745     -0.021758
      2.52642      2.21514     15.62122         0.012469      0.000632      0.000744
      2.19580      0.74895      8.79101        -0.005351      0.000511      0.014252
      2.60596      2.21756     24.90143         0.010428      0.000574     -0.025413
      2.64355      2.22424     34.09072         0.003523     -0.000065     -0.028409
      2.66606      2.23370     43.28521        -0.004932     -0.000101      0.004728
      4.53686      2.24194     48.16428         0.004748     -0.000739     -0.003014
      4.54008      2.24427     52.46931         0.000068     -0.000749     -0.002253
      4.53730      2.24365     56.77037         0.000979     -0.000468      0.004200
      4.53448      2.24085     61.07992        -0.002411     -0.000387      0.008396
      4.52642      2.23622     65.39974        -0.006341     -0.000160      0.010122
      2.20528      0.77330     50.31572         0.001422     -0.000854     -0.004126
      2.20526      0.77383     54.61666        -0.000094     -0.000565      0.000717
      2.20610      0.77210     58.92170        -0.001964     -0.000460      0.006462
      2.20405      0.76837     63.23633        -0.001852     -0.000301      0.010447
      2.19227      0.76303     67.55847        -0.001588      0.000069      0.018172
      1.86221      0.76103     42.37536        -0.008324     -0.000012      0.000662
      1.85937      0.75340     33.14486         0.032355     -0.000221      0.018246
      2.97748      2.22908      0.34879        -0.016123      0.000020      0.002239
      1.79576      0.74682     23.98071         0.026436      0.000512      0.000074
      3.09756      2.21881      9.63587        -0.033455      0.000464     -0.010010
      1.64358      0.74483     14.76992         0.011126      0.000544     -0.021083
      2.97310      2.21491     19.05038        -0.002004      0.000701      0.011712
      1.61910      0.75128      5.40823        -0.001118      0.000295     -0.031376
      2.88627      2.21932     28.34170         0.000181      0.000273      0.010842
      2.88389      2.22614     37.53152        -0.006257     -0.000114      0.006766
      3.03460      2.23935     46.76295         0.005755     -0.000550     -0.000041
      0.58863      0.76996     46.98108         0.007126     -0.000487      0.004654
      0.55066      0.75695     37.73410        -0.015622     -0.000118      0.008364
      0.55365      0.75017     28.56461        -0.024851      0.000035     -0.000745
      3.95351      2.22335      4.94428         0.043009      0.000248     -0.012734
      0.63904      0.74482     19.38426        -0.020549      0.000669     -0.005262
      3.97529      2.21573     14.34448         0.021552      0.000515      0.000032
      0.76587      0.74720     10.10744         0.001217      0.000504     -0.032283
      4.12824      2.21627     23.71595        -0.002178      0.000587      0.013125
      0.70003      0.75679      0.67374         0.001751      0.000121     -0.002494
      4.19300      2.22256     32.94122        -0.008248     -0.000132      0.023547
      4.20130      2.23014     42.14320        -0.000753     -0.000092     -0.001309
      3.46847      0.76760     44.40883         0.001243     -0.000665      0.005004
      3.38535      0.75400     35.13711         0.000035     -0.000159      0.011632
      3.36210      0.74733     25.93985        -0.005120      0.000467      0.005194
      1.36863      2.21960      7.81585         0.002519      0.000474     -0.018868
      3.32978      0.74458     16.62691         0.001927      0.000637      0.002291
      1.33398      2.21493     17.15248         0.000261      0.000657     -0.008581
      3.34643      0.75032      7.22884         0.006227      0.000406     -0.004171
      1.34210      2.21870     26.36610        -0.002200      0.000344     -0.001928
      1.35961      2.22537     35.53510        -0.004205     -0.000182      0.002413
      1.44315      2.23734     44.79489         0.003054     -0.000366      0.006460
      3.69097      0.75753     39.73488        -0.008317     -0.000083      0.005948
      3.68559      0.75073     30.55294         0.007406     -0.000016      0.007206
      1.00652      2.22440      3.10515         0.003664      0.000250     -0.011059
      3.69103      0.74501     21.30797         0.003929      0.000664      0.006490
      1.01655      2.21620     12.50069         0.001079      0.000514     -0.017119
      3.69847      0.74650     11.92827        -0.000405      0.000500     -0.003799
      1.04069      2.21586     21.76374         0.001961      0.000595     -0.002708
      3.69146      0.75557      2.54804        -0.006529      0.000220      0.003638
      1.04938      2.22199     30.94522         0.000721     -0.000103      0.001596
      1.06354      2.22821     40.12943        -0.002366     -0.000002      0.000956
      3.00517      2.24367     51.26015         0.001442     -0.000736     -0.006445
      2.98349      2.24400     55.58550         0.001934     -0.000491     -0.001565
      2.98499      2.24206     59.89215        -0.000891     -0.000406      0.005417
      2.98344      2.23815     64.20861        -0.004968     -0.000247      0.008072
      3.73597      0.77201     49.06402         0.003003     -0.000725     -0.006027
      3.76414      0.77374     53.43755        -0.001577     -0.000637     -0.005186
      3.75834      0.77293     57.73851        -0.001893     -0.000422      0.002697
      3.75439      0.76993     62.05001        -0.002289     -0.000345      0.007305
      3.75139      0.76513     66.37711         0.000578     -0.000106      0.004957
      0.64662      0.77367     51.47993         0.001694     -0.000738     -0.002342
      0.65237      0.77328     55.79665         0.001238     -0.000481      0.003981
      0.65483      0.77066     60.11141        -0.001502     -0.000392      0.009903
      0.65333      0.76618     64.43521        -0.004088     -0.000184      0.012227
      1.44275      2.24321     49.30207        -0.000174     -0.000748     -0.002652
      1.43522      2.24417     53.63678        -0.000185     -0.000597      0.000522
      1.42512      2.24263     57.95429        -0.001498     -0.000434      0.007162
      1.41978      2.23907     62.27252        -0.002529     -0.000303      0.011184
      1.40843      2.23381     66.60213        -0.009232     -0.000023      0.005065
      4.41012      2.23916     45.39003        -0.000371     -0.000630     -0.008138
 -----------------------------------------------------------------------------------
    total drift:                                0.003731     -0.012213     -0.002768


--------------------------------------------------------------------------------------------------------



  FREE ENERGIE OF THE ION-ELECTRON SYSTEM (eV)
  ---------------------------------------------------
  free  energy   TOTEN  =      -641.15108722 eV

  energy  without entropy=     -641.21360253  energy(sigma->0) =     -641.17192566
 
 d Force = 0.5424592E-03[ 0.341E-03, 0.744E-03]  d Energy = 0.4063969E-03 0.136E-03
 d Force =-0.4646714E+00[-0.470E+00,-0.460E+00]  d Ewald  = 0.4714664E+00-0.936E+00


--------------------------------------------------------------------------------------------------------


    POTLOK:  cpu time    0.07: real time    0.07


--------------------------------------------------------------------------------------------------------




--------------------------------------------------------------------------------------------------------


  
 reached required accuracy - stopping structural energy minimisation
     LOOP+:  cpu time   38.97: real time   39.79
    4ORBIT:  cpu time    0.00: real time    0.00

 total amount of memory used by VASP on root node    51335. kBytes
========================================================================

   base      :      30000. kBytes
   nonl-proj :       5400. kBytes
   fftplans  :       1032. kBytes
   grid      :       2790. kBytes
   one-center:        311. kBytes
   wavefun   :      11802. kBytes
 
  
  
 General timing and accounting informations for this job:
 ========================================================
  
                  Total CPU time used (sec):      493.300
                            User time (sec):      492.092
                          System time (sec):        1.208
                         Elapsed time (sec):      502.738
  
                   Maximum memory used (kb):      128176.
                   Average memory used (kb):           0.
  
                          Minor page faults:        18327
                          Major page faults:            0
                 Voluntary context switches:        17924
