 vasp.5.3.3 18Dez12 (build May 12 2016 12:04:25) complex                        
  
 executed on             LinuxIFC date 2019.03.04  17:06:38
 running on   48 total cores
 distrk:  each k-point on   48 cores,    1 groups
 distr:  one band on NCORES_PER_BAND=   6 cores,    8 groups


--------------------------------------------------------------------------------------------------------


 INCAR:
 POTCAR:   PAW_PBE Mn 06Sep2000                   
 POTCAR:   PAW_PBE O_s 07Sep2000                  
 POTCAR:    PAW_PBE Li 17Jan2003                  
 POTCAR:   PAW_PBE Mn 06Sep2000                   
  local pseudopotential read in
  partial core-charges read in
  atomic valenz-charges read in
  non local Contribution for L=           2  read in
    real space projection operators read in
  non local Contribution for L=           2  read in
    real space projection operators read in
  non local Contribution for L=           0  read in
    real space projection operators read in
  non local Contribution for L=           0  read in
    real space projection operators read in
  non local Contribution for L=           1  read in
    real space projection operators read in
  non local Contribution for L=           1  read in
    real space projection operators read in
    PAW grid and wavefunctions read in
 
   number of l-projection  operators is LMAX  =           6
   number of lm-projection operators is LMMAX =          18
 
 POTCAR:   PAW_PBE O_s 07Sep2000                  
  local pseudopotential read in
  atomic valenz-charges read in
  non local Contribution for L=           0  read in
    real space projection operators read in
  non local Contribution for L=           0  read in
    real space projection operators read in
  non local Contribution for L=           1  read in
    real space projection operators read in
  non local Contribution for L=           1  read in
    real space projection operators read in
    PAW grid and wavefunctions read in
 
   number of l-projection  operators is LMAX  =           4
   number of lm-projection operators is LMMAX =           8
 
 POTCAR:    PAW_PBE Li 17Jan2003                  
  local pseudopotential read in
  partial core-charges read in
  atomic valenz-charges read in
  non local Contribution for L=           0  read in
    real space projection operators read in
  non local Contribution for L=           0  read in
    real space projection operators read in
  non local Contribution for L=           1  read in
    real space projection operators read in
    PAW grid and wavefunctions read in
 
   number of l-projection  operators is LMAX  =           3
   number of lm-projection operators is LMMAX =           5
 

 ----------------------------------------------------------------------------- 
|                                                                             |
|  ADVICE TO THIS USER RUNNING 'VASP/VAMP'   (HEAR YOUR MASTER'S VOICE ...):  |
|                                                                             |
|      You have a (more or less) 'large supercell' and for larger cells       |
|      it might be more efficient to use real space projection operators      |
|      So try LREAL= Auto  in the INCAR   file.                               |
|      Mind: If you want to do a very accurate calculations keep the          |
|      reciprocal projection scheme          (i.e. LREAL=.FALSE.)             |
|                                                                             |
 ----------------------------------------------------------------------------- 

 PAW_PBE Mn 06Sep2000                   :
 energy of atom  1       EATOM= -416.8732
 kinetic energy error for atom=    0.0088 (will be added to EATOM!!)
 PAW_PBE O_s 07Sep2000                  :
 energy of atom  2       EATOM= -432.2909
 kinetic energy error for atom=    0.0164 (will be added to EATOM!!)
  PAW_PBE Li 17Jan2003                  :
 energy of atom  3       EATOM=   -5.3001
 kinetic energy error for atom=    0.0000 (will be added to EATOM!!)
 
 
 POSCAR: Li Mn30 O62  (P1) ~ CONTCAR (VASP)      
  positions in direct lattice
  velocities in cartesian coordinates
 exchange correlation table for  LEXCH =        8
   RHO(1)=    0.500       N(1)  =     2000
   RHO(2)=  100.500       N(2)  =     4000
 


--------------------------------------------------------------------------------------------------------


 ion  position               nearest neighbor table
   1  0.074  0.259  0.619-  52 1.89  52 1.89  31 1.91  72 1.92  72 1.92  63 1.93  10 2.91  10 2.91

   2  0.056  0.255  0.526-  51 1.89  51 1.89  32 1.92  71 1.92  71 1.93  64 1.93   9 2.91   9 2.92

   3  0.938  0.750  0.218-  50 1.90  50 1.90  33 1.91  70 1.94  70 1.94  65 1.94   8 2.92   8 2.92

   4  0.051  0.252  0.432-  49 1.89  49 1.89  34 1.92  69 1.92  69 1.93  66 1.93   7 2.92   7 2.92

   5  0.972  0.750  0.313-  48 1.90  48 1.90  35 1.92  68 1.93  68 1.93  67 1.95   6 2.93   6 2.93

   6  0.033  0.250  0.338-  47 1.90  47 1.90  36 1.92  67 1.93  67 1.93  68 1.94   5 2.93   5 2.93

   7  0.960  0.751  0.407-  46 1.89  46 1.89  37 1.91  66 1.93  66 1.93  69 1.94   4 2.92   4 2.92

   8  0.029  0.250  0.243-  45 1.90  45 1.90  65 1.93  65 1.93  70 1.93  38 1.95   3 2.92   3 2.92

   9  0.952  0.754  0.501-  44 1.89  44 1.89  39 1.90  64 1.93  64 1.93  71 1.94   2 2.91   2 2.92

  10  0.960  0.758  0.594-  43 1.88  43 1.89  40 1.90  72 1.93  63 1.93  63 1.93   1 2.91   1 2.91

  11  0.445  0.261  0.665-  62 1.92  62 1.92  53 1.92  41 1.95  41 1.95  42 1.95  93 2.41  20 2.91
                            20 2.91
  12  0.460  0.257  0.573-  40 1.89  40 1.89  43 1.91  54 1.92  61 1.92  61 1.93  19 2.91  19 2.91

  13  0.453  0.253  0.479-  39 1.89  39 1.89  44 1.92  60 1.92  60 1.93  55 1.93  18 2.92  18 2.92

  14  0.534  0.750  0.265-  38 1.89  38 1.89  45 1.91  59 1.93  59 1.93  56 1.95  17 2.94  17 2.94

  15  0.461  0.251  0.385-  37 1.89  37 1.90  46 1.92  58 1.93  58 1.93  57 1.94  16 2.93  16 2.93

  16  0.534  0.751  0.360-  36 1.89  36 1.89  47 1.92  57 1.93  57 1.93  58 1.94  15 2.93  15 2.93

  17  0.472  0.250  0.291-  35 1.90  35 1.90  48 1.93  56 1.93  56 1.93  59 1.93  14 2.94  14 2.94

  18  0.552  0.753  0.454-  34 1.89  34 1.89  49 1.91  55 1.93  55 1.93  60 1.94  13 2.92  13 2.92

  19  0.558  0.756  0.548-  32 1.89  32 1.89  51 1.90  54 1.93  54 1.93  61 1.94  12 2.91  12 2.91

  20  0.574  0.760  0.640-  31 1.88  31 1.89  52 1.90  53 1.93  53 1.93  62 1.94  11 2.91  11 2.91

  21  0.969  0.762  0.689-  78 1.91  78 1.91  42 1.93  42 1.93  88 2.01  41 2.08  93 2.66  93 2.67
                            93 2.70  93 2.70
  22  0.981  0.764  0.735-  79 1.89  79 1.89  83 1.91  83 1.91  89 1.92  73 1.94
  23  0.980  0.765  0.778-  80 1.90  80 1.90  84 1.90  84 1.90  90 1.92  74 1.93
  24  0.978  0.766  0.822-  81 1.90  81 1.90  85 1.90  85 1.90  75 1.93  91 1.93
  25  0.981  0.767  0.866-  82 1.90  82 1.90  86 1.90  86 1.90  92 1.91  76 1.95
  26  0.480  0.263  0.713-  73 1.88  73 1.88  83 1.91  88 1.99  88 1.99  78 2.04  93 2.42
  27  0.480  0.265  0.757-  74 1.89  74 1.89  89 1.90  89 1.90  84 1.92  79 1.93
  28  0.480  0.266  0.800-  75 1.90  75 1.90  90 1.90  90 1.90  80 1.93  85 1.93
  29  0.479  0.266  0.844-  76 1.89  76 1.89  91 1.90  91 1.90  86 1.93  81 1.93
  30  0.481  0.268  0.889-  87 1.87  77 1.89  77 1.90  92 1.92  92 1.92  82 1.93
  31  0.406  0.260  0.631-  20 1.88  20 1.89   1 1.91
  32  0.373  0.256  0.539-  19 1.89  19 1.89   2 1.92
  33  0.685  0.750  0.203-   3 1.91
  34  0.365  0.252  0.445-  18 1.89  18 1.89   4 1.92
  35  0.681  0.750  0.299-  17 1.90  17 1.90   5 1.92
  36  0.328  0.250  0.352-  16 1.89  16 1.89   6 1.92
  37  0.656  0.751  0.394-  15 1.89  15 1.90   7 1.91
  38  0.339  0.250  0.256-  14 1.89  14 1.89   8 1.95
  39  0.633  0.753  0.489-  13 1.89  13 1.89   9 1.90
  40  0.640  0.757  0.582-  12 1.89  12 1.89  10 1.90
  41  0.620  0.761  0.676-  11 1.95  11 1.95  21 2.08  93 2.09  93 2.09
  42  0.131  0.262  0.678-  93 1.86  21 1.93  21 1.93  11 1.95
  43  0.141  0.258  0.585-  10 1.88  10 1.89  12 1.91
  44  0.134  0.254  0.492-   9 1.89   9 1.89  13 1.92
  45  0.843  0.750  0.252-   8 1.90   8 1.90  14 1.91
  46  0.156  0.251  0.399-   7 1.89   7 1.89  15 1.92
  47  0.828  0.750  0.346-   6 1.90   6 1.90  16 1.92
  48  0.182  0.250  0.305-   5 1.90   5 1.90  17 1.93
  49  0.866  0.752  0.442-   4 1.89   4 1.89  18 1.91
  50  0.096  0.250  0.208-   3 1.90   3 1.90
  51  0.874  0.755  0.535-   2 1.89   2 1.89  19 1.90
  52  0.906  0.759  0.629-   1 1.89   1 1.89  20 1.90
  53  0.736  0.260  0.651-  11 1.92  20 1.93  20 1.93
  54  0.733  0.256  0.558-  12 1.92  19 1.93  19 1.93
  55  0.727  0.253  0.465-  13 1.93  18 1.93  18 1.93
  56  0.283  0.750  0.281-  17 1.93  17 1.93  14 1.95
  57  0.719  0.251  0.370-  16 1.93  16 1.93  15 1.94
  58  0.276  0.751  0.376-  15 1.93  15 1.93  16 1.94
  59  0.722  0.250  0.275-  14 1.93  14 1.93  17 1.93
  60  0.278  0.753  0.469-  13 1.92  13 1.93  18 1.94
  61  0.285  0.757  0.563-  12 1.92  12 1.93  19 1.94
  62  0.282  0.760  0.655-  11 1.92  11 1.92  20 1.94
  63  0.790  0.258  0.605-   1 1.93  10 1.93  10 1.93
  64  0.779  0.254  0.511-   2 1.93   9 1.93   9 1.93
  65  0.208  0.750  0.233-   8 1.93   8 1.93   3 1.94
  66  0.782  0.251  0.417-   7 1.93   7 1.93   4 1.93
  67  0.223  0.750  0.329-   6 1.93   6 1.93   5 1.95
  68  0.783  0.250  0.322-   5 1.93   5 1.93   6 1.94
  69  0.229  0.752  0.422-   4 1.92   4 1.93   7 1.94
  70  0.757  0.250  0.228-   8 1.93   3 1.94   3 1.94
  71  0.229  0.755  0.516-   2 1.92   2 1.93   9 1.94
  72  0.242  0.759  0.609-   1 1.92   1 1.92  10 1.93
  73  0.652  0.763  0.723-  26 1.88  26 1.88  22 1.94
  74  0.644  0.765  0.767-  27 1.89  27 1.89  23 1.93
  75  0.646  0.766  0.810-  28 1.90  28 1.90  24 1.93
  76  0.658  0.766  0.854-  29 1.89  29 1.89  25 1.95
  77  0.648  0.767  0.898-  30 1.89  30 1.90
  78  0.802  0.262  0.699-  93 1.83  21 1.91  21 1.91  26 2.04
  79  0.814  0.264  0.745-  22 1.89  22 1.89  27 1.93
  80  0.815  0.265  0.788-  23 1.90  23 1.90  28 1.93
  81  0.807  0.266  0.832-  24 1.90  24 1.90  29 1.93
  82  0.787  0.267  0.875-  25 1.90  25 1.90  30 1.93
  83  0.142  0.264  0.725-  26 1.91  22 1.91  22 1.91
  84  0.143  0.265  0.768-  23 1.90  23 1.90  27 1.92
  85  0.147  0.266  0.812-  24 1.90  24 1.90  28 1.93
  86  0.159  0.267  0.857-  25 1.90  25 1.90  29 1.93
  87  0.243  0.274  0.904-  30 1.87
  88  0.315  0.763  0.702-  26 1.99  26 1.99  21 2.01  93 2.02  93 2.02
  89  0.318  0.765  0.747-  27 1.90  27 1.90  22 1.92
  90  0.315  0.766  0.790-  28 1.90  28 1.90  23 1.92
  91  0.306  0.766  0.835-  29 1.90  29 1.90  24 1.93
  92  0.271  0.767  0.880-  25 1.91  30 1.92  30 1.92
  93  0.465  0.262  0.689-  78 1.83  42 1.86  88 2.02  88 2.02  41 2.09  41 2.09  11 2.41  26 2.42
                            21 2.66  21 2.67  21 2.70  21 2.70
 
  LATTYP: Found a simple orthorhombic cell.
 ALAT       =     2.8659999400
 B/A-ratio  =     1.5816469242
 C/A-ratio  =    34.8918360410
  
  Lattice vectors:
  
 A1 = (   0.0000000000,  -2.8659999400,   0.0000000000)
 A2 = (  -4.5329999900,   0.0000000000,   0.0000000000)
 A3 = (   0.0000000000,   0.0000000000,-100.0000000000)


Analysis of symmetry for initial positions (statically):
=====================================================================
 Subroutine PRICEL returns:
 Original cell was already a primitive cell.
 

 Routine SETGRP: Setting up the symmetry group for a 
 simple orthorhombic supercell.


 Subroutine GETGRP returns: Found  1 space group operations
 (whereof  1 operations were pure point group operations)
 out of a pool of  8 trial point group operations.


The static configuration has the point symmetry C_1 .


Analysis of symmetry for dynamics (positions and initial velocities):
=====================================================================
 Subroutine PRICEL returns:
 Original cell was already a primitive cell.
 

 Routine SETGRP: Setting up the symmetry group for a 
 simple orthorhombic supercell.


 Subroutine GETGRP returns: Found  1 space group operations
 (whereof  1 operations were pure point group operations)
 out of a pool of  8 trial point group operations.


The dynamic configuration has the point symmetry C_1 .


Analysis of magnetic symmetry:
=====================================================================

 Subroutine MAGSYM returns: Found  1 space group operations
 (whereof  1 operations were pure point group operations)
 out of a pool of  1 trial space group operations
 (whereof  1 operations were pure point group operations)
 and found also     1 'primitive' translations


The magnetic configuration has the point symmetry C_1 .


 irot  :   1
 --------------------------------------------------------------------
 isymop:   1   0   0
           0   1   0
           0   0   1

 gtrans:     0.0000000     0.0000000     0.0000000

 ptrans:     0.0000000     0.0000000     0.0000000
 rotmap:
 (   1->   1)  (   2->   2)  (   3->   3)  (   4->   4)  (   5->   5) 
 (   6->   6)  (   7->   7)  (   8->   8)  (   9->   9)  (  10->  10) 
 (  11->  11)  (  12->  12)  (  13->  13)  (  14->  14)  (  15->  15) 
 (  16->  16)  (  17->  17)  (  18->  18)  (  19->  19)  (  20->  20) 
 (  21->  21)  (  22->  22)  (  23->  23)  (  24->  24)  (  25->  25) 
 (  26->  26)  (  27->  27)  (  28->  28)  (  29->  29)  (  30->  30) 
 (  31->  31)  (  32->  32)  (  33->  33)  (  34->  34)  (  35->  35) 
 (  36->  36)  (  37->  37)  (  38->  38)  (  39->  39)  (  40->  40) 
 (  41->  41)  (  42->  42)  (  43->  43)  (  44->  44)  (  45->  45) 
 (  46->  46)  (  47->  47)  (  48->  48)  (  49->  49)  (  50->  50) 
 (  51->  51)  (  52->  52)  (  53->  53)  (  54->  54)  (  55->  55) 
 (  56->  56)  (  57->  57)  (  58->  58)  (  59->  59)  (  60->  60) 
 (  61->  61)  (  62->  62)  (  63->  63)  (  64->  64)  (  65->  65) 
 (  66->  66)  (  67->  67)  (  68->  68)  (  69->  69)  (  70->  70) 
 (  71->  71)  (  72->  72)  (  73->  73)  (  74->  74)  (  75->  75) 
 (  76->  76)  (  77->  77)  (  78->  78)  (  79->  79)  (  80->  80) 
 (  81->  81)  (  82->  82)  (  83->  83)  (  84->  84)  (  85->  85) 
 (  86->  86)  (  87->  87)  (  88->  88)  (  89->  89)  (  90->  90) 
 (  91->  91)  (  92->  92)  (  93->  93) 
 
 
 KPOINTS: Automatic mesh                          

Automatic generation of k-mesh.
Space group operators:
 irot       det(A)        alpha          n_x          n_y          n_z        tau_x        tau_y        tau_z
    1     1.000000     0.000000     1.000000     0.000000     0.000000     0.000000     0.000000     0.000000
 
 Subroutine IBZKPT returns following result:
 ===========================================
 
 Found      4 irreducible k-points:
 
 Following reciprocal coordinates:
            Coordinates               Weight
  0.000000  0.000000  0.000000      1.000000
  0.500000  0.000000  0.000000      1.000000
  0.000000  0.333333  0.000000      2.000000
  0.500000  0.333333  0.000000      2.000000
 
 Following cartesian coordinates:
            Coordinates               Weight
  0.000000  0.000000  0.000000      1.000000
  0.110302  0.000000  0.000000      1.000000
  0.000000  0.116306  0.000000      2.000000
  0.110302  0.116306  0.000000      2.000000
 
 TETIRR: Found     15 inequivalent tetrahedra from       36


--------------------------------------------------------------------------------------------------------




 Dimension of arrays:
   k-points           NKPTS =      4   k-points in BZ     NKDIM =      4   number of bands    NBANDS=    416
   number of dos      NEDOS =    301   number of ions     NIONS =     93
   non local maximal  LDIM  =      6   non local SUM 2l+1 LMDIM =     18
   total plane-waves  NPLWV = 164640
   max r-space proj   IRMAX =      1   max aug-charges    IRDMAX=   4858
   dimension x,y,z NGX =    24 NGY =   14 NGZ =  490
   dimension x,y,z NGXF=    48 NGYF=   28 NGZF=  980
   support grid    NGXF=    48 NGYF=   28 NGZF=  980
   ions per type =              30  62   1
 NGX,Y,Z   is equivalent  to a cutoff of   8.80,  8.12,  8.15 a.u.
 NGXF,Y,Z  is equivalent  to a cutoff of  17.60, 16.24, 16.29 a.u.


 I would recommend the setting:
   dimension x,y,z NGX =    22 NGY =   14 NGZ =  489
 SYSTEM =  unknown system                          
 POSCAR =  Li Mn30 O62  (P1) ~ CONTCAR (VASP)      

 Startparameter for this run:
   NWRITE =      1    write-flag & timer
   PREC   = normal    normal or accurate (medium, high low for compatibility)
   ISTART =      0    job   : 0-new  1-cont  2-samecut
   ICHARG =      2    charge: 1-file 2-atom 10-const
   ISPIN  =      2    spin polarized calculation?
   LNONCOLLINEAR =      F non collinear calculations
   LSORBIT =      F    spin-orbit coupling
   INIWAV =      1    electr: 0-lowe 1-rand  2-diag
   LASPH  =      F    aspherical Exc in radial PAW
   METAGGA=      F    non-selfconsistent MetaGGA calc.

 Electronic Relaxation 1
   ENCUT  =  400.0 eV  29.40 Ry    5.42 a.u.   7.39  4.67163.07*2*pi/ulx,y,z
   ENINI  =  400.0     initial cutoff
   ENAUG  =  500.7 eV  augmentation charge cutoff
   NELM   =     60;   NELMIN=  2; NELMDL= -5     # of ELM steps 
   EDIFF  = 0.1E-03   stopping-criterion for ELM
   LREAL  =      F    real-space projection
   NLSPLINE    = F    spline interpolate recip. space projectors
   LCOMPAT=      F    compatible to vasp.4.4
   GGA_COMPAT  = T    GGA compatible to vasp.4.4-vasp.4.6
   LMAXPAW     = -100 max onsite density
   LMAXMIX     =    4 max onsite mixed and CHGCAR
   VOSKOWN=      1    Vosko Wilk Nusair interpolation
   ROPT   =    0.00000   0.00000   0.00000
 Ionic relaxation
   EDIFFG = 0.1E-02   stopping-criterion for IOM
   NSW    =      0    number of steps for IOM
   NBLOCK =      1;   KBLOCK =      1    inner block; outer block 
   IBRION =     -1    ionic relax: 0-MD 1-quasi-New 2-CG
   NFREE  =      0    steps in history (QN), initial steepest desc. (CG)
   ISIF   =      2    stress and relaxation
   IWAVPR =     10    prediction:  0-non 1-charg 2-wave 3-comb
   ISYM   =      2    0-nonsym 1-usesym 2-fastsym
   LCORR  =      T    Harris-Foulkes like correction to forces

   POTIM  = 0.5000    time-step for ionic-motion
   TEIN   =    0.0    initial temperature
   TEBEG  =    0.0;   TEEND  =   0.0 temperature during run
   SMASS  =  -3.00    Nose mass-parameter (am)
   estimated Nose-frequenzy (Omega)   =  0.10E-29 period in steps =****** mass=  -0.470E-27a.u.
   SCALEE = 1.0000    scale energy and forces
   NPACO  =    256;   APACO  = 16.0  distance and # of slots for P.C.
   PSTRESS=    0.0 pullay stress

  Mass of Ions in am
   POMASS =  54.94 16.00  7.01
  Ionic Valenz
   ZVAL   =   7.00  6.00  1.00
  Atomic Wigner-Seitz radii
   RWIGS  =  -1.00 -1.00 -1.00
  virtual crystal weights 
   VCA    =   1.00  1.00  1.00
   NELECT =     583.0000    total number of electrons
   NUPDOWN=      -1.0000    fix difference up-down

 DOS related values:
   EMIN   =  10.00;   EMAX   =-10.00  energy-range for DOS
   EFERMI =   0.00
   ISMEAR =    -5;   SIGMA  =   0.20  broadening in eV -4-tet -1-fermi 0-gaus

 Electronic relaxation 2 (details)
   IALGO  =     38    algorithm
   LDIAG  =      T    sub-space diagonalisation (order eigenvalues)
   LSUBROT=      T    optimize rotation matrix (better conditioning)
   TURBO    =      0    0=normal 1=particle mesh
   IRESTART =      0    0=no restart 2=restart with 2 vectors
   NREBOOT  =      0    no. of reboots
   NMIN     =      0    reboot dimension
   EREF     =   0.00    reference energy to select bands
   IMIX   =      4    mixing-type and parameters
     AMIX     =   0.40;   BMIX     =  1.00
     AMIX_MAG =   1.60;   BMIX_MAG =  1.00
     AMIN     =   0.01
     WC   =   100.;   INIMIX=   1;  MIXPRE=   1;  MAXMIX= -45

 Intra band minimization:
   WEIMIN = 0.0000     energy-eigenvalue tresh-hold
   EBREAK =  0.60E-07  absolut break condition
   DEPER  =   0.30     relativ break condition  

   TIME   =   0.40     timestep for ELM

  volume/ion in A,a.u.               =      13.97        94.27
  Fermi-wavevector in a.u.,A,eV,Ry     =   1.253364  2.368514 21.373666  1.570920
  Thomas-Fermi vector in A             =   2.387220
 
 Write flags
   LWAVE  =      F    write WAVECAR
   LCHARG =      F    write CHGCAR
   LVTOT  =      F    write LOCPOT, total local potential
   LVHAR  =      F    write LOCPOT, Hartree potential only
   LELF   =      F    write electronic localiz. function (ELF)
   LORBIT =      0    0 simple, 1 ext, 2 COOP (PROOUT)


 Dipole corrections
   LMONO  =      F    monopole corrections only (constant potential shift)
   LDIPOL =      F    correct potential (dipole corrections)
   IDIPOL =      0    1-x, 2-y, 3-z, 4-all directions 
   EPSILON=  1.0000000 bulk dielectric constant

 LDA+U is selected, type is set to LDAUTYPE =  2
   angular momentum for each species LDAUL =     2   -1    0
   U (eV)           for each species LDAUU =   3.9  0.0  1.0
   J (eV)           for each species LDAUJ =   0.0  0.0  0.0
 Exchange correlation treatment:
   GGA     =    --    GGA type
   LEXCH   =     8    internal setting for exchange type
   VOSKOWN=      1    Vosko Wilk Nusair interpolation
   LHFCALC =     F    Hartree Fock is set to
   LHFONE  =     F    Hartree Fock one center treatment
   AEXX    =    0.0000 exact exchange contribution

 Linear response parameters
   LEPSILON=     F    determine dielectric tensor
   LRPA    =     F    only Hartree local field effects (RPA)
   LNABLA  =     F    use nabla operator in PAW spheres
   LVEL    =     F    velocity operator in full k-point grid
   LINTERFAST=   F  fast interpolation
   KINTER  =     0    interpolate to denser k-point grid
   CSHIFT  =0.1000    complex shift for real part using Kramers Kronig
   OMEGAMAX=  -1.0    maximum frequency
   DEG_THRESHOLD= 0.2000000E-02 threshold for treating states as degnerate
   RTIME   =    0.100 relaxation time in fs

 Orbital magnetization related:
   ORBITALMAG=     F  switch on orbital magnetization
   LCHIMAG   =     F  perturbation theory with respect to B field
   DQ        =  0.001000  dq finite difference perturbation B field



--------------------------------------------------------------------------------------------------------


 Static calculation
 charge density and potential will be updated during run
 spin polarized calculation
 Variant of blocked Davidson
 Davidson routine will perform the subspace rotation
 perform sub-space diagonalisation
    after iterative eigenvector-optimisation
 modified Broyden-mixing scheme, WC =      100.0
 initial mixing is a Kerker type mixing with AMIX =  0.4000 and BMIX =      1.0000
 Hartree-type preconditioning will be used
 using additional bands          124
 reciprocal scheme for non local part
 use partial core corrections
 calculate Harris-corrections to forces 
   (improved forces if not selfconsistent)
 use gradient corrections 
 use of overlap-Matrix (Vanderbilt PP)
 Fermi weights with tetrahedron method with Bloechl corrections


--------------------------------------------------------------------------------------------------------


  energy-cutoff  :      400.00
  volume of cell :     1299.16
      direct lattice vectors                 reciprocal lattice vectors
     4.532999990  0.000000000  0.000000000     0.220604457  0.000000000  0.000000000
     0.000000000  2.865999940  0.000000000     0.000000000  0.348918360  0.000000000
     0.000000000  0.000000000100.000000000     0.000000000  0.000000000  0.010000000

  length of vectors
     4.532999990  2.865999940100.000000000     0.220604457  0.348918360  0.010000000


 
 k-points in units of 2pi/SCALE and weight: Automatic mesh                          
   0.00000000  0.00000000  0.00000000       0.167
   0.11030223  0.00000000  0.00000000       0.167
   0.00000000  0.11630612  0.00000000       0.333
   0.11030223  0.11630612  0.00000000       0.333
 
 k-points in reciprocal lattice and weights: Automatic mesh                          
   0.00000000  0.00000000  0.00000000       0.167
   0.50000000  0.00000000  0.00000000       0.167
   0.00000000  0.33333333  0.00000000       0.333
   0.50000000  0.33333333  0.00000000       0.333
 
 position of ions in fractional coordinates (direct lattice) 
   0.07381669  0.25872979  0.61902906
   0.05577707  0.25482081  0.52594713
   0.93799571  0.74967560  0.21779082
   0.05087752  0.25181610  0.43246664
   0.97225136  0.75001393  0.31266443
   0.03327563  0.25021724  0.33811019
   0.96049696  0.75138331  0.40731804
   0.02900379  0.24968252  0.24289490
   0.95162674  0.75397552  0.50099504
   0.95958352  0.75791968  0.59421912
   0.44471878  0.26058292  0.66503754
   0.46000569  0.25676427  0.57260060
   0.45274323  0.25313740  0.47929139
   0.53441277  0.74973447  0.26508383
   0.46079547  0.25089117  0.38541444
   0.53354486  0.75054863  0.36009710
   0.47233759  0.24982612  0.29059014
   0.55211319  0.75250054  0.45425427
   0.55798634  0.75586535  0.54762528
   0.57400907  0.75974474  0.64044202
   0.96896342  0.76197676  0.68902284
   0.98125718  0.76403337  0.73501626
   0.97999230  0.76530251  0.77849010
   0.97846087  0.76612309  0.82218236
   0.98053146  0.76663017  0.86649475
   0.47951227  0.26318403  0.71333256
   0.47963072  0.26474989  0.75674818
   0.47954541  0.26576308  0.80029017
   0.47904584  0.26639357  0.84425268
   0.48145803  0.26756207  0.88868406
   0.40580171  0.25955104  0.63085313
   0.37263699  0.25566040  0.53868280
   0.68457317  0.74990767  0.20256127
   0.36549690  0.25237587  0.44534792
   0.68092111  0.74985630  0.29873171
   0.32758508  0.25048586  0.35196478
   0.65594446  0.75097225  0.39410289
   0.33887785  0.24972238  0.25643588
   0.63321005  0.75327186  0.48857317
   0.64045584  0.75695690  0.58186277
   0.61954977  0.76094484  0.67560381
   0.13056306  0.26168018  0.67837675
   0.14083410  0.25771822  0.58513689
   0.13418909  0.25382429  0.49194337
   0.84300974  0.74968567  0.25202938
   0.15596993  0.25129436  0.39876239
   0.82768477  0.75026772  0.34634704
   0.18175899  0.24997941  0.30466180
   0.86604079  0.75193039  0.44157103
   0.09647231  0.24962834  0.20765791
   0.87417709  0.75500031  0.53514763
   0.90557383  0.75890276  0.62877629
   0.73640074  0.25988120  0.65111397
   0.73340332  0.25600801  0.55788176
   0.72673912  0.25262021  0.46454532
   0.28280825  0.74980968  0.28094191
   0.71899795  0.25060706  0.36995028
   0.27622937  0.75081908  0.37565038
   0.72165369  0.24974937  0.27489867
   0.27821028  0.75301505  0.46916081
   0.28473567  0.75658096  0.56250146
   0.28220574  0.76040255  0.65460538
   0.79026070  0.25806160  0.60468843
   0.77908969  0.25413327  0.51133589
   0.20831756  0.74967683  0.23288956
   0.78191235  0.25145381  0.41745346
   0.22264271  0.75017481  0.32851401
   0.78306589  0.25004600  0.32234116
   0.22862987  0.75172822  0.42245545
   0.75691463  0.24966772  0.22803504
   0.22897154  0.75466676  0.51577593
   0.24165621  0.75857544  0.60869042
   0.65200327  0.76331837  0.72259814
   0.64391519  0.76484289  0.76664491
   0.64582561  0.76582036  0.81016994
   0.65762956  0.76641917  0.85363068
   0.64827449  0.76704637  0.89849207
   0.80185599  0.26218342  0.69910158
   0.81431916  0.26415201  0.74479750
   0.81461402  0.26538069  0.78839810
   0.80676389  0.26616323  0.83188948
   0.78693310  0.26662122  0.87530389
   0.14208068  0.26388077  0.72469380
   0.14314842  0.26520573  0.76840748
   0.14664827  0.26606474  0.81231624
   0.15910072  0.26656822  0.85698821
   0.24274180  0.27400734  0.90395025
   0.31469126  0.76276114  0.70167674
   0.31841326  0.76461622  0.74656367
   0.31458175  0.76569184  0.79031007
   0.30562081  0.76634489  0.83454192
   0.27084480  0.76718722  0.88027618
   0.46458680  0.26234114  0.68912051
 
 position of ions in cartesian coordinates  (Angst):
   0.33461107  0.74151955 61.90290601
   0.25283745  0.73031643 52.59471299
   4.25193456  2.14857023 21.77908231
   0.23062780  0.72170493 43.24666380
   4.40721542  2.14953988 31.26644329
   0.15083844  0.71712260 33.81101899
   4.35393273  2.15346453 40.73180369
   0.13147417  0.71559009 24.28949040
   4.31372398  2.16089380 50.09950396
   4.34979208  2.17219776 59.42191208
   2.01591021  0.74683063 66.50375394
   2.08520577  0.73588638 57.26005982
   2.05228507  0.72549178 47.92913875
   2.42249306  2.14873895 26.50838285
   2.08878586  0.71905409 38.54144417
   2.41855883  2.15107234 36.00971048
   2.14110629  0.71600164 29.05901385
   2.50272909  2.15666650 45.42542698
   2.52935205  2.16631005 54.76252808
   2.60198310  2.17742838 64.04420174
   4.39231115  2.18382534 68.90228359
   4.44803878  2.18971959 73.50162630
   4.44230511  2.19335695 77.84900982
   4.43536312  2.19570874 82.21823565
   4.44474911  2.19716203 86.64947483
   2.17362911  0.75428542 71.33325605
   2.17416607  0.75877318 75.67481751
   2.17377933  0.76167696 80.02901680
   2.17151478  0.76348395 84.42526778
   2.18244923  0.76683288 88.86840625
   1.83949914  0.74387326 63.08531300
   1.68916347  0.73272268 53.86828026
   3.10317017  2.14923535 20.25612739
   1.65679746  0.72330924 44.53479234
   3.08661538  2.14908810 29.87317126
   1.48494318  0.71789247 35.19647782
   2.97339624  2.15228642 39.41028871
   1.53613329  0.71570434 25.64358847
   2.87034115  2.15887712 48.85731695
   2.90318630  2.16943843 58.18627674
   2.80841908  2.18086788 67.56038066
   0.59184234  0.74997538 67.83767510
   0.63840096  0.73862042 58.51368936
   0.60827915  0.72746041 49.19433662
   3.82136313  2.14859909 25.20293758
   0.70701171  0.72020962 39.87623915
   3.75189505  2.15026723 34.63470386
   0.82391348  0.71644098 30.46618023
   3.92576291  2.15503245 44.15710259
   0.43730898  0.71543481 20.76579071
   3.96264472  2.16383085 53.51476338
   4.10496616  2.17501527 62.87762852
   3.33810454  0.74481951 65.11139656
   3.32451725  0.73371895 55.78817644
   3.29430841  0.72400952 46.45453164
   1.28196978  2.14895449 28.09419097
   3.25921771  0.71823982 36.99502823
   1.25214772  2.15184745 37.56503799
   3.27125616  0.71578167 27.48986704
   1.26112720  2.15814108 46.91608135
   1.29070678  2.16836097 56.25014608
   1.27923863  2.17931367 65.46053846
   3.58225176  0.73960452 60.46884301
   3.53161354  0.72834593 51.13358923
   0.94430351  2.14857376 23.28895599
   3.54440867  0.72066661 41.74534595
   1.00923938  2.15000096 32.85140074
   3.54963765  0.71663182 32.23411609
   1.03637919  2.15445303 42.24554462
   3.43109399  0.71554767 22.80350364
   1.03792797  2.16287490 51.57759315
   1.09542762  2.17407718 60.86904162
   2.95553083  2.18767039 72.25981441
   2.91886755  2.19203968 76.66449113
   2.92752746  2.19484112 81.01699411
   2.98103480  2.19655728 85.36306804
   2.93862827  2.19835484 89.84920663
   3.63481321  0.75141765 69.91015798
   3.69130875  0.75705965 74.47974957
   3.69264536  0.76058105 78.83981026
   3.65706070  0.76282380 83.18894787
   3.56716776  0.76413641 87.53038870
   0.64405174  0.75628227 72.46938018
   0.64889178  0.76007960 76.84074831
   0.66475660  0.76254154 81.23162388
   0.72120357  0.76398451 85.69882102
   1.10034859  0.78530502 90.39502509
   1.42649548  2.18607337 70.16767426
   1.44336731  2.19139004 74.65636700
   1.42599905  2.19447276 79.03100706
   1.38537914  2.19634442 83.45419181
   1.22773946  2.19875853 88.02761829
   2.10597195  0.75186968 68.91205114
 


--------------------------------------------------------------------------------------------------------


 k-point  1 :   0.0000 0.0000 0.0000  plane waves:   23717
 k-point  2 :   0.5000 0.0000 0.0000  plane waves:   23738
 k-point  3 :   0.0000 0.3333 0.0000  plane waves:   23596
 k-point  4 :   0.5000 0.3333 0.0000  plane waves:   23470

 maximum and minimum number of plane-waves per node :      3978     3893

 maximum number of plane-waves:     23738
 maximum index in each direction: 
   IXMAX=    7   IYMAX=    4   IZMAX=  163
   IXMIN=   -7   IYMIN=   -5   IZMIN= -163

 WARNING: aliasing errors must be expected set NGX to  30 to avoid them
 WARNING: aliasing errors must be expected set NGY to  20 to avoid them
 WARNING: aliasing errors must be expected set NGZ to 654 to avoid them
 aliasing errors are usually negligible using standard VASP settings
 and one can safely disregard these warnings

 parallel 3D FFT for wavefunctions:
    minimum data exchange during FFTs selected (reduces bandwidth)
 parallel 3D FFT for charge:
    minimum data exchange during FFTs selected (reduces bandwidth)


 total amount of memory used by VASP on root node    77474. kBytes
========================================================================

   base      :      30000. kBytes
   nonl-proj :      12812. kBytes
   fftplans  :       1804. kBytes
   grid      :       4619. kBytes
   one-center:        497. kBytes
   wavefun   :      27742. kBytes
 
 Broyden mixing: mesh for mixing (old mesh)
   NGX = 15   NGY =  9   NGZ =327
  (NGX  = 48   NGY  = 28   NGZ  =980)
  gives a total of  44145 points

 initial charge density was supplied:
 charge density of overlapping atoms calculated
 number of electron     583.0000000 magnetization     120.0000000
 keeping initial charge density in first step


--------------------------------------------------------------------------------------------------------


 Maximum index for augmentation-charges          314 (set IRDMAX)


--------------------------------------------------------------------------------------------------------


 First call to EWALD:  gamma=   0.162
 Maximum number of real-space cells 6x 9x 1
 Maximum number of reciprocal cells 1x 1x21

 FEWALD executed in parallel
    FEWALD:  cpu time    0.00: real time    0.00


----------------------------------------- Iteration    1(   1)  ---------------------------------------


    POTLOK:  cpu time    0.08: real time    0.08
    SETDIJ:  cpu time    0.01: real time    0.01
     EDDAV:  cpu time   16.85: real time   16.86
 BZINTS: Fermi energy: 18.948929;583.000000 electrons
         Band energy:4201.780116;  BLOECHL correction: -0.882032
       DOS:  cpu time    0.01: real time    0.01
    --------------------------------------------
      LOOP:  cpu time   16.95: real time   17.04

 eigenvalue-minimisations  :  6736
 total energy-change (2. order) : 0.7568181E+04  (-0.2142781E+05)
 number of electron     583.0000000 magnetization     120.0000000
 augmentation part      583.0000000 magnetization     120.0000000

 Free energy of the ion-electron system (eV)
  ---------------------------------------------------
  alpha Z        PSCENC =      1567.40908688
  Ewald energy   TEWEN  =   1629626.97574381
  -1/2 Hartree   DENC   =  -1668934.53646223
  -exchange  EXHF       =         0.00000000
  -V(xc)+E(xc)   XCENC  =      1387.05356787
  PAW double counting   =     27858.91048155   -27451.65979283
  entropy T*S    EENTRO =         0.00000000
  eigenvalues    EBANDS =      4201.78011559
  atomic energy  EATOM  =     39312.24856084
  ---------------------------------------------------
  free energy    TOTEN  =      7568.18130149 eV

  energy without entropy =     7568.18130149  energy(sigma->0) =     7568.18130149


--------------------------------------------------------------------------------------------------------




----------------------------------------- Iteration    1(   2)  ---------------------------------------


     EDDAV:  cpu time   17.19: real time   17.21
 BZINTS: Fermi energy:  5.439579;583.000000 electrons
         Band energy:***********;  BLOECHL correction: -0.177545
       DOS:  cpu time    0.01: real time    0.01
    --------------------------------------------
      LOOP:  cpu time   17.20: real time   17.31

 eigenvalue-minimisations  :  6928
 total energy-change (2. order) :-0.7156069E+04  (-0.6466445E+04)
 number of electron     583.0000000 magnetization     120.0000000
 augmentation part      583.0000000 magnetization     120.0000000

 Free energy of the ion-electron system (eV)
  ---------------------------------------------------
  alpha Z        PSCENC =      1567.40908688
  Ewald energy   TEWEN  =   1629626.97574381
  -1/2 Hartree   DENC   =  -1668934.53646223
  -exchange  EXHF       =         0.00000000
  -V(xc)+E(xc)   XCENC  =      1387.05356787
  PAW double counting   =     27858.91048155   -27451.65979283
  entropy T*S    EENTRO =         0.00000000
  eigenvalues    EBANDS =     -2954.28843288
  atomic energy  EATOM  =     39312.24856084
  ---------------------------------------------------
  free energy    TOTEN  =       412.11275301 eV

  energy without entropy =      412.11275301  energy(sigma->0) =      412.11275301


--------------------------------------------------------------------------------------------------------




----------------------------------------- Iteration    1(   3)  ---------------------------------------


     EDDAV:  cpu time   17.38: real time   17.39
 BZINTS: Fermi energy:  2.355833;583.000000 electrons
         Band energy:***********;  BLOECHL correction: -0.106562
       DOS:  cpu time    0.01: real time    0.01
    --------------------------------------------
      LOOP:  cpu time   17.39: real time   17.64

 eigenvalue-minimisations  :  7032
 total energy-change (2. order) :-0.1211049E+04  (-0.1116168E+04)
 number of electron     583.0000000 magnetization     120.0000000
 augmentation part      583.0000000 magnetization     120.0000000

 Free energy of the ion-electron system (eV)
  ---------------------------------------------------
  alpha Z        PSCENC =      1567.40908688
  Ewald energy   TEWEN  =   1629626.97574381
  -1/2 Hartree   DENC   =  -1668934.53646223
  -exchange  EXHF       =         0.00000000
  -V(xc)+E(xc)   XCENC  =      1387.05356787
  PAW double counting   =     27858.91048155   -27451.65979283
  entropy T*S    EENTRO =         0.00000000
  eigenvalues    EBANDS =     -4165.33787905
  atomic energy  EATOM  =     39312.24856084
  ---------------------------------------------------
  free energy    TOTEN  =      -798.93669315 eV

  energy without entropy =     -798.93669315  energy(sigma->0) =     -798.93669315


--------------------------------------------------------------------------------------------------------




----------------------------------------- Iteration    1(   4)  ---------------------------------------


     EDDAV:  cpu time   20.58: real time   20.61
 BZINTS: Fermi energy:  2.114900;583.000000 electrons
         Band energy:***********;  BLOECHL correction: -0.192573
       DOS:  cpu time    0.01: real time    0.01
    --------------------------------------------
      LOOP:  cpu time   20.60: real time   20.73

 eigenvalue-minimisations  :  8768
 total energy-change (2. order) :-0.7741824E+02  (-0.7564542E+02)
 number of electron     583.0000000 magnetization     120.0000000
 augmentation part      583.0000000 magnetization     120.0000000

 Free energy of the ion-electron system (eV)
  ---------------------------------------------------
  alpha Z        PSCENC =      1567.40908688
  Ewald energy   TEWEN  =   1629626.97574381
  -1/2 Hartree   DENC   =  -1668934.53646223
  -exchange  EXHF       =         0.00000000
  -V(xc)+E(xc)   XCENC  =      1387.05356787
  PAW double counting   =     27858.91048155   -27451.65979283
  entropy T*S    EENTRO =         0.00000000
  eigenvalues    EBANDS =     -4242.75611915
  atomic energy  EATOM  =     39312.24856084
  ---------------------------------------------------
  free energy    TOTEN  =      -876.35493325 eV

  energy without entropy =     -876.35493325  energy(sigma->0) =     -876.35493325


--------------------------------------------------------------------------------------------------------




----------------------------------------- Iteration    1(   5)  ---------------------------------------


     EDDAV:  cpu time   21.55: real time   21.57
 BZINTS: Fermi energy:  2.105611;583.000000 electrons
         Band energy:***********;  BLOECHL correction: -0.191374
       DOS:  cpu time    0.01: real time    0.01
    CHARGE:  cpu time    0.31: real time    0.31
    MIXING:  cpu time    0.00: real time    0.00
    --------------------------------------------
      LOOP:  cpu time   21.88: real time   22.00

 eigenvalue-minimisations  :  9304
 total energy-change (2. order) :-0.2319430E+01  (-0.2312181E+01)
 number of electron     582.9999854 magnetization     119.7923736
 augmentation part      163.2869518 magnetization      86.0965920

 Broyden mixing:
  rms(total) = 0.10655E+02    rms(broyden)= 0.10650E+02
  rms(prec ) = 0.10715E+02
  weight for this iteration     100.00

 Free energy of the ion-electron system (eV)
  ---------------------------------------------------
  alpha Z        PSCENC =      1567.40908688
  Ewald energy   TEWEN  =   1629626.97574381
  -1/2 Hartree   DENC   =  -1668934.53646223
  -exchange  EXHF       =         0.00000000
  -V(xc)+E(xc)   XCENC  =      1387.05356787
  PAW double counting   =     27858.91048155   -27451.65979283
  entropy T*S    EENTRO =         0.00000000
  eigenvalues    EBANDS =     -4245.07554879
  atomic energy  EATOM  =     39312.24856084
  ---------------------------------------------------
  free energy    TOTEN  =      -878.67436290 eV

  energy without entropy =     -878.67436290  energy(sigma->0) =     -878.67436290


--------------------------------------------------------------------------------------------------------




----------------------------------------- Iteration    1(   6)  ---------------------------------------


    POTLOK:  cpu time    0.08: real time    0.08
    SETDIJ:  cpu time    0.01: real time    0.01
     EDDAV:  cpu time   22.67: real time   22.69
 BZINTS: Fermi energy: -0.823013;583.000000 electrons
         Band energy:***********;  BLOECHL correction: -0.583654
       DOS:  cpu time    0.01: real time    0.01
    CHARGE:  cpu time    0.31: real time    0.32
    MIXING:  cpu time    0.00: real time    0.00
    --------------------------------------------
      LOOP:  cpu time   23.09: real time   23.33

 eigenvalue-minimisations  :  9872
 total energy-change (2. order) :-0.2726457E+01  (-0.1383856E+03)
 number of electron     582.9999955 magnetization     119.6627452
 augmentation part      204.1227216 magnetization     100.8084817

 Broyden mixing:
  rms(total) = 0.16861E+02    rms(broyden)= 0.16858E+02
  rms(prec ) = 0.19578E+02
  weight for this iteration     100.00

 eigenvalues of (default mixing * dielectric matrix)
  average eigenvalue GAMMA=   0.3620
  0.3620

 Free energy of the ion-electron system (eV)
  ---------------------------------------------------
  alpha Z        PSCENC =      1567.40908688
  Ewald energy   TEWEN  =   1629626.97574381
  -1/2 Hartree   DENC   =  -1668782.42593685
  -exchange  EXHF       =         0.00000000
  -V(xc)+E(xc)   XCENC  =      1464.21298245
  PAW double counting   =     30183.26758927   -29749.29896356
  entropy T*S    EENTRO =         0.00000000
  eigenvalues    EBANDS =     -4503.78988270
  atomic energy  EATOM  =     39312.24856084
  ---------------------------------------------------
  free energy    TOTEN  =      -881.40081987 eV

  energy without entropy =     -881.40081987  energy(sigma->0) =     -881.40081987


--------------------------------------------------------------------------------------------------------




----------------------------------------- Iteration    1(   7)  ---------------------------------------


    POTLOK:  cpu time    0.08: real time    0.08
    SETDIJ:  cpu time    0.01: real time    0.01
     EDDAV:  cpu time   22.17: real time   22.17
 BZINTS: Fermi energy:  6.168883;583.000000 electrons
         Band energy:***********;  BLOECHL correction: -0.117346
       DOS:  cpu time    0.01: real time    0.01
    CHARGE:  cpu time    0.31: real time    0.31
    MIXING:  cpu time    0.00: real time    0.00
    --------------------------------------------
      LOOP:  cpu time   22.59: real time   22.70

 eigenvalue-minimisations  :  9624
 total energy-change (2. order) :-0.8641077E+03  (-0.9418066E+02)
 number of electron     582.9999923 magnetization     119.6008500
 augmentation part      183.0225257 magnetization     101.5686064

 Broyden mixing:
  rms(total) = 0.22092E+02    rms(broyden)= 0.22090E+02
  rms(prec ) = 0.36425E+02
  weight for this iteration     100.00

 eigenvalues of (default mixing * dielectric matrix)
  average eigenvalue GAMMA=   0.2069
  0.3558  0.0579

 Free energy of the ion-electron system (eV)
  ---------------------------------------------------
  alpha Z        PSCENC =      1567.40908688
  Ewald energy   TEWEN  =   1629626.97574381
  -1/2 Hartree   DENC   =  -1670699.50714066
  -exchange  EXHF       =         0.00000000
  -V(xc)+E(xc)   XCENC  =      1430.66222959
  PAW double counting   =     30394.28447841   -30047.46123821
  entropy T*S    EENTRO =         0.00000000
  eigenvalues    EBANDS =     -3330.12027640
  atomic energy  EATOM  =     39312.24856084
  ---------------------------------------------------
  free energy    TOTEN  =     -1745.50855573 eV

  energy without entropy =    -1745.50855573  energy(sigma->0) =    -1745.50855573


--------------------------------------------------------------------------------------------------------




----------------------------------------- Iteration    1(   8)  ---------------------------------------


    POTLOK:  cpu time    0.08: real time    0.08
    SETDIJ:  cpu time    0.01: real time    0.01
     EDDAV:  cpu time   23.41: real time   23.43
 BZINTS: Fermi energy:  1.812937;583.000000 electrons
         Band energy:***********;  BLOECHL correction: -0.059127
       DOS:  cpu time    0.01: real time    0.01
    CHARGE:  cpu time    0.32: real time    0.32
    MIXING:  cpu time    0.00: real time    0.00
    --------------------------------------------
      LOOP:  cpu time   23.83: real time   24.08

 eigenvalue-minimisations  : 10288
 total energy-change (2. order) : 0.1095522E+04  (-0.9261868E+02)
 number of electron     582.9999900 magnetization     119.5351766
 augmentation part      165.3290629 magnetization      91.6310716

 Broyden mixing:
  rms(total) = 0.83474E+01    rms(broyden)= 0.83424E+01
  rms(prec ) = 0.95352E+01
  weight for this iteration     100.00

 eigenvalues of (default mixing * dielectric matrix)
  average eigenvalue GAMMA=   0.2433
  0.4562  0.1627  0.1111

 Free energy of the ion-electron system (eV)
  ---------------------------------------------------
  alpha Z        PSCENC =      1567.40908688
  Ewald energy   TEWEN  =   1629626.97574381
  -1/2 Hartree   DENC   =  -1669440.38654411
  -exchange  EXHF       =         0.00000000
  -V(xc)+E(xc)   XCENC  =      1422.73197258
  PAW double counting   =     30437.90765161   -30114.38323313
  entropy T*S    EENTRO =         0.00000000
  eigenvalues    EBANDS =     -3462.48938006
  atomic energy  EATOM  =     39312.24856084
  ---------------------------------------------------
  free energy    TOTEN  =      -649.98614157 eV

  energy without entropy =     -649.98614157  energy(sigma->0) =     -649.98614157


--------------------------------------------------------------------------------------------------------




----------------------------------------- Iteration    1(   9)  ---------------------------------------


    POTLOK:  cpu time    0.08: real time    0.08
    SETDIJ:  cpu time    0.01: real time    0.01
     EDDAV:  cpu time   22.46: real time   22.48
 BZINTS: Fermi energy:  1.053171;583.000000 electrons
         Band energy:***********;  BLOECHL correction: -0.054337
       DOS:  cpu time    0.01: real time    0.01
    CHARGE:  cpu time    0.31: real time    0.31
    MIXING:  cpu time    0.00: real time    0.00
    --------------------------------------------
      LOOP:  cpu time   22.88: real time   23.01

 eigenvalue-minimisations  :  9800
 total energy-change (2. order) : 0.2634531E+02  (-0.2492909E+02)
 number of electron     582.9999903 magnetization     119.4425135
 augmentation part      164.6122411 magnetization      89.4776563

 Broyden mixing:
  rms(total) = 0.60168E+01    rms(broyden)= 0.60148E+01
  rms(prec ) = 0.62269E+01
  weight for this iteration     100.00

 eigenvalues of (default mixing * dielectric matrix)
  average eigenvalue GAMMA=   0.2651
  0.5903  0.1889  0.1889  0.0923

 Free energy of the ion-electron system (eV)
  ---------------------------------------------------
  alpha Z        PSCENC =      1567.40908688
  Ewald energy   TEWEN  =   1629626.97574381
  -1/2 Hartree   DENC   =  -1669152.42423356
  -exchange  EXHF       =         0.00000000
  -V(xc)+E(xc)   XCENC  =      1426.45218053
  PAW double counting   =     30618.24882981   -30298.75624225
  entropy T*S    EENTRO =         0.00000000
  eigenvalues    EBANDS =     -3723.79475982
  atomic energy  EATOM  =     39312.24856084
  ---------------------------------------------------
  free energy    TOTEN  =      -623.64083376 eV

  energy without entropy =     -623.64083376  energy(sigma->0) =     -623.64083376


--------------------------------------------------------------------------------------------------------




----------------------------------------- Iteration    1(  10)  ---------------------------------------


    POTLOK:  cpu time    0.08: real time    0.08
    SETDIJ:  cpu time    0.01: real time    0.01
     EDDAV:  cpu time   22.02: real time   22.04
 BZINTS: Fermi energy:  0.385869;583.000000 electrons
         Band energy:***********;  BLOECHL correction: -0.077273
       DOS:  cpu time    0.01: real time    0.01
    CHARGE:  cpu time    0.31: real time    0.31
    MIXING:  cpu time    0.00: real time    0.00
    --------------------------------------------
      LOOP:  cpu time   22.44: real time   22.55

 eigenvalue-minimisations  :  9536
 total energy-change (2. order) : 0.1895543E+02  (-0.5543016E+01)
 number of electron     582.9999888 magnetization     119.3711268
 augmentation part      165.8547287 magnetization      89.6885578

 Broyden mixing:
  rms(total) = 0.42967E+01    rms(broyden)= 0.42955E+01
  rms(prec ) = 0.44163E+01
  weight for this iteration     100.00

 eigenvalues of (default mixing * dielectric matrix)
  average eigenvalue GAMMA=   0.2833
  0.6312  0.2724  0.2724  0.0949  0.1456

 Free energy of the ion-electron system (eV)
  ---------------------------------------------------
  alpha Z        PSCENC =      1567.40908688
  Ewald energy   TEWEN  =   1629626.97574381
  -1/2 Hartree   DENC   =  -1669183.84999005
  -exchange  EXHF       =         0.00000000
  -V(xc)+E(xc)   XCENC  =      1435.31206426
  PAW double counting   =     30917.69514150   -30597.81031077
  entropy T*S    EENTRO =         0.00000000
  eigenvalues    EBANDS =     -3682.66569611
  atomic energy  EATOM  =     39312.24856084
  ---------------------------------------------------
  free energy    TOTEN  =      -604.68539963 eV

  energy without entropy =     -604.68539963  energy(sigma->0) =     -604.68539963


--------------------------------------------------------------------------------------------------------




----------------------------------------- Iteration    1(  11)  ---------------------------------------


    POTLOK:  cpu time    0.08: real time    0.08
    SETDIJ:  cpu time    0.01: real time    0.01
     EDDAV:  cpu time   21.95: real time   21.97
 BZINTS: Fermi energy:  0.338232;583.000000 electrons
         Band energy:***********;  BLOECHL correction: -0.070702
       DOS:  cpu time    0.01: real time    0.01
    CHARGE:  cpu time    0.31: real time    0.31
    MIXING:  cpu time    0.00: real time    0.00
    --------------------------------------------
      LOOP:  cpu time   22.37: real time   22.49

 eigenvalue-minimisations  :  9528
 total energy-change (2. order) : 0.6064904E+00  (-0.1451157E+01)
 number of electron     582.9999884 magnetization     119.3501741
 augmentation part      167.2770552 magnetization      88.8459114

 Broyden mixing:
  rms(total) = 0.36026E+01    rms(broyden)= 0.36021E+01
  rms(prec ) = 0.37048E+01
  weight for this iteration     100.00

 eigenvalues of (default mixing * dielectric matrix)
  average eigenvalue GAMMA=   0.2701
  0.6050  0.3064  0.3064  0.0952  0.1539  0.1539

 Free energy of the ion-electron system (eV)
  ---------------------------------------------------
  alpha Z        PSCENC =      1567.40908688
  Ewald energy   TEWEN  =   1629626.97574381
  -1/2 Hartree   DENC   =  -1669139.80139107
  -exchange  EXHF       =         0.00000000
  -V(xc)+E(xc)   XCENC  =      1439.80814568
  PAW double counting   =     31134.80235062   -30812.23798086
  entropy T*S    EENTRO =         0.00000000
  eigenvalues    EBANDS =     -3733.28342517
  atomic energy  EATOM  =     39312.24856084
  ---------------------------------------------------
  free energy    TOTEN  =      -604.07890926 eV

  energy without entropy =     -604.07890926  energy(sigma->0) =     -604.07890926


--------------------------------------------------------------------------------------------------------




----------------------------------------- Iteration    1(  12)  ---------------------------------------


    POTLOK:  cpu time    0.08: real time    0.08
    SETDIJ:  cpu time    0.01: real time    0.01
     EDDAV:  cpu time   20.87: real time   20.89
 BZINTS: Fermi energy:  0.241696;583.000000 electrons
         Band energy:***********;  BLOECHL correction: -0.120790
       DOS:  cpu time    0.01: real time    0.01
    CHARGE:  cpu time    0.31: real time    0.31
    MIXING:  cpu time    0.00: real time    0.00
    --------------------------------------------
      LOOP:  cpu time   21.29: real time   21.53

 eigenvalue-minimisations  :  8928
 total energy-change (2. order) :-0.3000685E+01  (-0.3736529E+01)
 number of electron     582.9999894 magnetization     119.2693026
 augmentation part      167.0006915 magnetization      89.8205180

 Broyden mixing:
  rms(total) = 0.33329E+01    rms(broyden)= 0.33323E+01
  rms(prec ) = 0.34301E+01
  weight for this iteration     100.00

 eigenvalues of (default mixing * dielectric matrix)
  average eigenvalue GAMMA=   0.2881
  0.5750  0.4272  0.4272  0.1820  0.1820  0.0950  0.1284

 Free energy of the ion-electron system (eV)
  ---------------------------------------------------
  alpha Z        PSCENC =      1567.40908688
  Ewald energy   TEWEN  =   1629626.97574381
  -1/2 Hartree   DENC   =  -1669164.08991170
  -exchange  EXHF       =         0.00000000
  -V(xc)+E(xc)   XCENC  =      1440.25791153
  PAW double counting   =     31196.44715673   -30872.95810558
  entropy T*S    EENTRO =         0.00000000
  eigenvalues    EBANDS =     -3713.37003684
  atomic energy  EATOM  =     39312.24856084
  ---------------------------------------------------
  free energy    TOTEN  =      -607.07959433 eV

  energy without entropy =     -607.07959433  energy(sigma->0) =     -607.07959433


--------------------------------------------------------------------------------------------------------




----------------------------------------- Iteration    1(  13)  ---------------------------------------


    POTLOK:  cpu time    0.08: real time    0.08
    SETDIJ:  cpu time    0.01: real time    0.01
     EDDAV:  cpu time   22.03: real time   22.04
 BZINTS: Fermi energy:  0.001515;583.000000 electrons
         Band energy:***********;  BLOECHL correction: -0.120698
       DOS:  cpu time    0.01: real time    0.01
    CHARGE:  cpu time    0.31: real time    0.31
    MIXING:  cpu time    0.00: real time    0.00
    --------------------------------------------
      LOOP:  cpu time   22.45: real time   22.55

 eigenvalue-minimisations  :  9584
 total energy-change (2. order) :-0.3379466E+01  (-0.7481916E+00)
 number of electron     582.9999892 magnetization     119.1126124
 augmentation part      167.5034040 magnetization      91.1051254

 Broyden mixing:
  rms(total) = 0.29797E+01    rms(broyden)= 0.29794E+01
  rms(prec ) = 0.31358E+01
  weight for this iteration     100.00

 eigenvalues of (default mixing * dielectric matrix)
  average eigenvalue GAMMA=   0.3454
  0.6755  0.6755  0.5396  0.2441  0.2441  0.0951  0.1576  0.1320

 Free energy of the ion-electron system (eV)
  ---------------------------------------------------
  alpha Z        PSCENC =      1567.40908688
  Ewald energy   TEWEN  =   1629626.97574381
  -1/2 Hartree   DENC   =  -1669131.57230320
  -exchange  EXHF       =         0.00000000
  -V(xc)+E(xc)   XCENC  =      1442.86905129
  PAW double counting   =     31397.52049457   -31071.85057476
  entropy T*S    EENTRO =         0.00000000
  eigenvalues    EBANDS =     -3754.05911984
  atomic energy  EATOM  =     39312.24856084
  ---------------------------------------------------
  free energy    TOTEN  =      -610.45906041 eV

  energy without entropy =     -610.45906041  energy(sigma->0) =     -610.45906041


--------------------------------------------------------------------------------------------------------




----------------------------------------- Iteration    1(  14)  ---------------------------------------


    POTLOK:  cpu time    0.08: real time    0.08
    SETDIJ:  cpu time    0.01: real time    0.01
     EDDAV:  cpu time   21.97: real time   21.99
 BZINTS: Fermi energy:  0.198615;583.000000 electrons
         Band energy:***********;  BLOECHL correction: -0.085199
       DOS:  cpu time    0.01: real time    0.01
    CHARGE:  cpu time    0.32: real time    0.32
    MIXING:  cpu time    0.00: real time    0.00
    --------------------------------------------
      LOOP:  cpu time   22.39: real time   22.51

 eigenvalue-minimisations  :  9520
 total energy-change (2. order) :-0.2240849E+01  (-0.9559685E+00)
 number of electron     582.9999883 magnetization     118.9543028
 augmentation part      169.8075064 magnetization      89.6158117

 Broyden mixing:
  rms(total) = 0.27095E+01    rms(broyden)= 0.27083E+01
  rms(prec ) = 0.27553E+01
  weight for this iteration     100.00

 eigenvalues of (default mixing * dielectric matrix)
  average eigenvalue GAMMA=   0.3650
  0.8663  0.8663  0.4885  0.2652  0.2652  0.0950  0.1465  0.1462  0.1462

 Free energy of the ion-electron system (eV)
  ---------------------------------------------------
  alpha Z        PSCENC =      1567.40908688
  Ewald energy   TEWEN  =   1629626.97574381
  -1/2 Hartree   DENC   =  -1669032.10577611
  -exchange  EXHF       =         0.00000000
  -V(xc)+E(xc)   XCENC  =      1449.92407708
  PAW double counting   =     31734.00090083   -31405.67644851
  entropy T*S    EENTRO =         0.00000000
  eigenvalues    EBANDS =     -3865.47605457
  atomic energy  EATOM  =     39312.24856084
  ---------------------------------------------------
  free energy    TOTEN  =      -612.69990975 eV

  energy without entropy =     -612.69990975  energy(sigma->0) =     -612.69990975


--------------------------------------------------------------------------------------------------------




----------------------------------------- Iteration    1(  15)  ---------------------------------------


    POTLOK:  cpu time    0.08: real time    0.08
    SETDIJ:  cpu time    0.01: real time    0.01
     EDDAV:  cpu time   22.05: real time   22.06
 BZINTS: Fermi energy: -0.147077;583.000000 electrons
         Band energy:***********;  BLOECHL correction: -0.160571
       DOS:  cpu time    0.01: real time    0.01
    CHARGE:  cpu time    0.31: real time    0.31
    MIXING:  cpu time    0.00: real time    0.00
    --------------------------------------------
      LOOP:  cpu time   22.47: real time   22.59

 eigenvalue-minimisations  :  9584
 total energy-change (2. order) :-0.2074376E+01  (-0.2248901E+01)
 number of electron     582.9999880 magnetization     118.7430570
 augmentation part      170.7082761 magnetization      91.9560736

 Broyden mixing:
  rms(total) = 0.19241E+01    rms(broyden)= 0.19233E+01
  rms(prec ) = 0.21494E+01
  weight for this iteration     100.00

 eigenvalues of (default mixing * dielectric matrix)
  average eigenvalue GAMMA=   0.4189
  1.1565  1.1565  0.4112  0.3420  0.3420  0.2029  0.2029  0.0950  0.1398  0.1398

 Free energy of the ion-electron system (eV)
  ---------------------------------------------------
  alpha Z        PSCENC =      1567.40908688
  Ewald energy   TEWEN  =   1629626.97574381
  -1/2 Hartree   DENC   =  -1669022.30841395
  -exchange  EXHF       =         0.00000000
  -V(xc)+E(xc)   XCENC  =      1458.06707977
  PAW double counting   =     32068.64373133   -31737.14851942
  entropy T*S    EENTRO =         0.00000000
  eigenvalues    EBANDS =     -3888.66155525
  atomic energy  EATOM  =     39312.24856084
  ---------------------------------------------------
  free energy    TOTEN  =      -614.77428599 eV

  energy without entropy =     -614.77428599  energy(sigma->0) =     -614.77428599


--------------------------------------------------------------------------------------------------------




----------------------------------------- Iteration    1(  16)  ---------------------------------------


    POTLOK:  cpu time    0.08: real time    0.08
    SETDIJ:  cpu time    0.01: real time    0.01
     EDDAV:  cpu time   22.61: real time   22.63
 BZINTS: Fermi energy: -0.125944;583.000000 electrons
         Band energy:***********;  BLOECHL correction: -0.129731
       DOS:  cpu time    0.01: real time    0.01
    CHARGE:  cpu time    0.31: real time    0.31
    MIXING:  cpu time    0.00: real time    0.00
    --------------------------------------------
      LOOP:  cpu time   23.03: real time   23.15

 eigenvalue-minimisations  :  9864
 total energy-change (2. order) :-0.2465722E+01  (-0.1527303E+01)
 number of electron     582.9999915 magnetization     118.5621248
 augmentation part      172.3929514 magnetization      93.0361484

 Broyden mixing:
  rms(total) = 0.18612E+01    rms(broyden)= 0.18599E+01
  rms(prec ) = 0.19396E+01
  weight for this iteration     100.00

 eigenvalues of (default mixing * dielectric matrix)
  average eigenvalue GAMMA=   0.4455
  1.3392  1.3392  0.4212  0.4212  0.3597  0.2275  0.2275  0.2002  0.0950  0.1349
  0.1349

 Free energy of the ion-electron system (eV)
  ---------------------------------------------------
  alpha Z        PSCENC =      1567.40908688
  Ewald energy   TEWEN  =   1629626.97574381
  -1/2 Hartree   DENC   =  -1668952.00757817
  -exchange  EXHF       =         0.00000000
  -V(xc)+E(xc)   XCENC  =      1468.97346694
  PAW double counting   =     32444.68093518   -32111.04258019
  entropy T*S    EENTRO =         0.00000000
  eigenvalues    EBANDS =     -3974.47764292
  atomic energy  EATOM  =     39312.24856084
  ---------------------------------------------------
  free energy    TOTEN  =      -617.24000763 eV

  energy without entropy =     -617.24000763  energy(sigma->0) =     -617.24000763


--------------------------------------------------------------------------------------------------------




----------------------------------------- Iteration    1(  17)  ---------------------------------------


    POTLOK:  cpu time    0.08: real time    0.08
    SETDIJ:  cpu time    0.01: real time    0.01
     EDDAV:  cpu time   21.06: real time   21.07
 BZINTS: Fermi energy: -0.212049;583.000000 electrons
         Band energy:***********;  BLOECHL correction: -0.120317
       DOS:  cpu time    0.01: real time    0.01
    CHARGE:  cpu time    0.31: real time    0.31
    MIXING:  cpu time    0.00: real time    0.00
    --------------------------------------------
      LOOP:  cpu time   21.48: real time   21.61

 eigenvalue-minimisations  :  9040
 total energy-change (2. order) :-0.3199214E+01  (-0.7165037E+00)
 number of electron     582.9999895 magnetization     118.4931547
 augmentation part      173.3453897 magnetization      93.5062985

 Broyden mixing:
  rms(total) = 0.18993E+01    rms(broyden)= 0.18988E+01
  rms(prec ) = 0.19273E+01
  weight for this iteration     100.00

 eigenvalues of (default mixing * dielectric matrix)
  average eigenvalue GAMMA=   0.4408
  1.3831  1.3831  0.4483  0.4483  0.3463  0.2688  0.2688  0.1881  0.1881  0.0950
  0.1356  0.1356

 Free energy of the ion-electron system (eV)
  ---------------------------------------------------
  alpha Z        PSCENC =      1567.40908688
  Ewald energy   TEWEN  =   1629626.97574381
  -1/2 Hartree   DENC   =  -1668930.86124225
  -exchange  EXHF       =         0.00000000
  -V(xc)+E(xc)   XCENC  =      1476.41995390
  PAW double counting   =     32704.51364911   -32372.16733055
  entropy T*S    EENTRO =         0.00000000
  eigenvalues    EBANDS =     -4004.97764322
  atomic energy  EATOM  =     39312.24856084
  ---------------------------------------------------
  free energy    TOTEN  =      -620.43922148 eV

  energy without entropy =     -620.43922148  energy(sigma->0) =     -620.43922148


--------------------------------------------------------------------------------------------------------




----------------------------------------- Iteration    1(  18)  ---------------------------------------


    POTLOK:  cpu time    0.08: real time    0.08
    SETDIJ:  cpu time    0.01: real time    0.01
     EDDAV:  cpu time   21.54: real time   21.56
 BZINTS: Fermi energy: -0.257301;583.000000 electrons
         Band energy:***********;  BLOECHL correction: -0.141497
       DOS:  cpu time    0.01: real time    0.01
    CHARGE:  cpu time    0.31: real time    0.31
    MIXING:  cpu time    0.00: real time    0.00
    --------------------------------------------
      LOOP:  cpu time   21.96: real time   22.10

 eigenvalue-minimisations  :  9296
 total energy-change (2. order) :-0.5942518E+00  (-0.2741612E+00)
 number of electron     582.9999910 magnetization     118.3882706
 augmentation part      173.4757217 magnetization      93.7085634

 Broyden mixing:
  rms(total) = 0.18303E+01    rms(broyden)= 0.18301E+01
  rms(prec ) = 0.18861E+01
  weight for this iteration     100.00

 eigenvalues of (default mixing * dielectric matrix)
  average eigenvalue GAMMA=   0.4574
  1.4422  1.4422  0.5327  0.5327  0.3444  0.3444  0.3362  0.2051  0.2051  0.1960
  0.0950  0.1350  0.1350

 Free energy of the ion-electron system (eV)
  ---------------------------------------------------
  alpha Z        PSCENC =      1567.40908688
  Ewald energy   TEWEN  =   1629626.97574381
  -1/2 Hartree   DENC   =  -1668939.49278886
  -exchange  EXHF       =         0.00000000
  -V(xc)+E(xc)   XCENC  =      1478.13829421
  PAW double counting   =     32763.06225180   -32432.22690376
  entropy T*S    EENTRO =         0.00000000
  eigenvalues    EBANDS =     -3997.14771823
  atomic energy  EATOM  =     39312.24856084
  ---------------------------------------------------
  free energy    TOTEN  =      -621.03347331 eV

  energy without entropy =     -621.03347331  energy(sigma->0) =     -621.03347331


--------------------------------------------------------------------------------------------------------




----------------------------------------- Iteration    1(  19)  ---------------------------------------


    POTLOK:  cpu time    0.08: real time    0.08
    SETDIJ:  cpu time    0.01: real time    0.01
     EDDAV:  cpu time   21.89: real time   21.90
 BZINTS: Fermi energy: -0.268238;583.000000 electrons
         Band energy:***********;  BLOECHL correction: -0.126266
       DOS:  cpu time    0.01: real time    0.01
    CHARGE:  cpu time    0.31: real time    0.31
    MIXING:  cpu time    0.00: real time    0.00
    --------------------------------------------
      LOOP:  cpu time   22.31: real time   22.54

 eigenvalue-minimisations  :  9504
 total energy-change (2. order) :-0.7772594E+00  (-0.2364853E+00)
 number of electron     582.9999896 magnetization     118.2709948
 augmentation part      173.4138126 magnetization      93.2957778

 Broyden mixing:
  rms(total) = 0.18202E+01    rms(broyden)= 0.18201E+01
  rms(prec ) = 0.18309E+01
  weight for this iteration     100.00

 eigenvalues of (default mixing * dielectric matrix)
  average eigenvalue GAMMA=   0.4832
  1.4338  1.4338  0.7662  0.7662  0.3926  0.3926  0.3500  0.0950  0.2302  0.2302
  0.2018  0.2018  0.1356  0.1356

 Free energy of the ion-electron system (eV)
  ---------------------------------------------------
  alpha Z        PSCENC =      1567.40908688
  Ewald energy   TEWEN  =   1629626.97574381
  -1/2 Hartree   DENC   =  -1668928.91959125
  -exchange  EXHF       =         0.00000000
  -V(xc)+E(xc)   XCENC  =      1479.85735805
  PAW double counting   =     32824.40062734   -32495.58567340
  entropy T*S    EENTRO =         0.00000000
  eigenvalues    EBANDS =     -4008.19684494
  atomic energy  EATOM  =     39312.24856084
  ---------------------------------------------------
  free energy    TOTEN  =      -621.81073266 eV

  energy without entropy =     -621.81073266  energy(sigma->0) =     -621.81073266


--------------------------------------------------------------------------------------------------------




----------------------------------------- Iteration    1(  20)  ---------------------------------------


    POTLOK:  cpu time    0.08: real time    0.08
    SETDIJ:  cpu time    0.01: real time    0.01
     EDDAV:  cpu time   21.41: real time   21.43
 BZINTS: Fermi energy: -0.250071;583.000000 electrons
         Band energy:***********;  BLOECHL correction: -0.109673
       DOS:  cpu time    0.01: real time    0.01
    CHARGE:  cpu time    0.31: real time    0.31
    MIXING:  cpu time    0.00: real time    0.00
    --------------------------------------------
      LOOP:  cpu time   21.83: real time   21.95

 eigenvalue-minimisations  :  9216
 total energy-change (2. order) :-0.9789149E+00  (-0.1095142E+00)
 number of electron     582.9999901 magnetization     118.2128127
 augmentation part      173.5931353 magnetization      92.9922166

 Broyden mixing:
  rms(total) = 0.17863E+01    rms(broyden)= 0.17862E+01
  rms(prec ) = 0.18004E+01
  weight for this iteration     100.00

 eigenvalues of (default mixing * dielectric matrix)
  average eigenvalue GAMMA=   0.4812
  1.4121  1.4121  0.8921  0.8921  0.4102  0.4102  0.3383  0.2656  0.2656  0.0950
  0.1880  0.1880  0.1785  0.1352  0.1352

 Free energy of the ion-electron system (eV)
  ---------------------------------------------------
  alpha Z        PSCENC =      1567.40908688
  Ewald energy   TEWEN  =   1629626.97574381
  -1/2 Hartree   DENC   =  -1668938.84053375
  -exchange  EXHF       =         0.00000000
  -V(xc)+E(xc)   XCENC  =      1480.76793181
  PAW double counting   =     32880.72041585   -32554.07091328
  entropy T*S    EENTRO =         0.00000000
  eigenvalues    EBANDS =     -3997.99993976
  atomic energy  EATOM  =     39312.24856084
  ---------------------------------------------------
  free energy    TOTEN  =      -622.78964760 eV

  energy without entropy =     -622.78964760  energy(sigma->0) =     -622.78964760


--------------------------------------------------------------------------------------------------------




----------------------------------------- Iteration    1(  21)  ---------------------------------------


    POTLOK:  cpu time    0.08: real time    0.08
    SETDIJ:  cpu time    0.01: real time    0.01
     EDDAV:  cpu time   20.80: real time   20.81
 BZINTS: Fermi energy: -0.248666;583.000000 electrons
         Band energy:***********;  BLOECHL correction: -0.126607
       DOS:  cpu time    0.01: real time    0.01
    CHARGE:  cpu time    0.31: real time    0.31
    MIXING:  cpu time    0.00: real time    0.00
    --------------------------------------------
      LOOP:  cpu time   21.22: real time   21.35

 eigenvalue-minimisations  :  8904
 total energy-change (2. order) :-0.2289826E+00  (-0.3002870E-01)
 number of electron     582.9999899 magnetization     118.0480540
 augmentation part      173.5666002 magnetization      92.7617005

 Broyden mixing:
  rms(total) = 0.17290E+01    rms(broyden)= 0.17290E+01
  rms(prec ) = 0.17369E+01
  weight for this iteration     100.00

 eigenvalues of (default mixing * dielectric matrix)
  average eigenvalue GAMMA=   0.5454
  1.3628  1.3628  1.3463  1.3463  0.5122  0.5122  0.3671  0.3671  0.3369  0.0950
  0.2523  0.2063  0.2063  0.1822  0.1354  0.1354

 Free energy of the ion-electron system (eV)
  ---------------------------------------------------
  alpha Z        PSCENC =      1567.40908688
  Ewald energy   TEWEN  =   1629626.97574381
  -1/2 Hartree   DENC   =  -1668942.64503349
  -exchange  EXHF       =         0.00000000
  -V(xc)+E(xc)   XCENC  =      1480.69666120
  PAW double counting   =     32892.64402548   -32567.12116809
  entropy T*S    EENTRO =         0.00000000
  eigenvalues    EBANDS =     -3993.22650682
  atomic energy  EATOM  =     39312.24856084
  ---------------------------------------------------
  free energy    TOTEN  =      -623.01863020 eV

  energy without entropy =     -623.01863020  energy(sigma->0) =     -623.01863020


--------------------------------------------------------------------------------------------------------




----------------------------------------- Iteration    1(  22)  ---------------------------------------


    POTLOK:  cpu time    0.08: real time    0.08
    SETDIJ:  cpu time    0.01: real time    0.01
     EDDAV:  cpu time   21.72: real time   21.74
 BZINTS: Fermi energy: -0.219009;583.000000 electrons
         Band energy:***********;  BLOECHL correction: -0.120688
       DOS:  cpu time    0.01: real time    0.01
    CHARGE:  cpu time    0.31: real time    0.31
    MIXING:  cpu time    0.00: real time    0.00
    --------------------------------------------
      LOOP:  cpu time   22.14: real time   22.37

 eigenvalue-minimisations  :  9384
 total energy-change (2. order) :-0.7046737E+00  (-0.4339790E-01)
 number of electron     582.9999899 magnetization     117.8111855
 augmentation part      173.4786702 magnetization      92.6750188

 Broyden mixing:
  rms(total) = 0.16131E+01    rms(broyden)= 0.16131E+01
  rms(prec ) = 0.16228E+01
  weight for this iteration     100.00

 eigenvalues of (default mixing * dielectric matrix)
  average eigenvalue GAMMA=   0.5728
  1.7762  1.7762  1.1541  1.1541  0.6021  0.6021  0.3896  0.3896  0.3366  0.3366
  0.2636  0.0950  0.2040  0.2040  0.1824  0.1354  0.1354

 Free energy of the ion-electron system (eV)
  ---------------------------------------------------
  alpha Z        PSCENC =      1567.40908688
  Ewald energy   TEWEN  =   1629626.97574381
  -1/2 Hartree   DENC   =  -1668959.12593859
  -exchange  EXHF       =         0.00000000
  -V(xc)+E(xc)   XCENC  =      1480.28493612
  PAW double counting   =     32910.14173496   -32586.95061913
  entropy T*S    EENTRO =         0.00000000
  eigenvalues    EBANDS =     -3974.70680883
  atomic energy  EATOM  =     39312.24856084
  ---------------------------------------------------
  free energy    TOTEN  =      -623.72330393 eV

  energy without entropy =     -623.72330393  energy(sigma->0) =     -623.72330393


--------------------------------------------------------------------------------------------------------




----------------------------------------- Iteration    1(  23)  ---------------------------------------


    POTLOK:  cpu time    0.08: real time    0.08
    SETDIJ:  cpu time    0.01: real time    0.01
     EDDAV:  cpu time   21.78: real time   21.79
 BZINTS: Fermi energy: -0.230160;583.000000 electrons
         Band energy:***********;  BLOECHL correction: -0.150820
       DOS:  cpu time    0.01: real time    0.01
    CHARGE:  cpu time    0.31: real time    0.31
    MIXING:  cpu time    0.00: real time    0.00
    --------------------------------------------
      LOOP:  cpu time   22.20: real time   22.31

 eigenvalue-minimisations  :  9440
 total energy-change (2. order) :-0.7285515E+00  (-0.6147865E-01)
 number of electron     582.9999898 magnetization     117.7125615
 augmentation part      173.3658940 magnetization      92.8329678

 Broyden mixing:
  rms(total) = 0.15164E+01    rms(broyden)= 0.15163E+01
  rms(prec ) = 0.15224E+01
  weight for this iteration     100.00

 eigenvalues of (default mixing * dielectric matrix)
  average eigenvalue GAMMA=   0.5726
  1.6357  1.6357  1.2379  1.2379  0.7061  0.7061  0.4448  0.4448  0.3689  0.3689
  0.3152  0.0950  0.2480  0.2046  0.2046  0.1817  0.1354  0.1354

 Free energy of the ion-electron system (eV)
  ---------------------------------------------------
  alpha Z        PSCENC =      1567.40908688
  Ewald energy   TEWEN  =   1629626.97574381
  -1/2 Hartree   DENC   =  -1668975.41533569
  -exchange  EXHF       =         0.00000000
  -V(xc)+E(xc)   XCENC  =      1480.90098412
  PAW double counting   =     32955.22620392   -32635.07551940
  entropy T*S    EENTRO =         0.00000000
  eigenvalues    EBANDS =     -3956.72157988
  atomic energy  EATOM  =     39312.24856084
  ---------------------------------------------------
  free energy    TOTEN  =      -624.45185541 eV

  energy without entropy =     -624.45185541  energy(sigma->0) =     -624.45185541


--------------------------------------------------------------------------------------------------------




----------------------------------------- Iteration    1(  24)  ---------------------------------------


    POTLOK:  cpu time    0.08: real time    0.08
    SETDIJ:  cpu time    0.01: real time    0.01
     EDDAV:  cpu time   20.65: real time   20.67
 BZINTS: Fermi energy: -0.273339;583.000000 electrons
         Band energy:***********;  BLOECHL correction: -0.178932
       DOS:  cpu time    0.01: real time    0.01
    CHARGE:  cpu time    0.31: real time    0.31
    MIXING:  cpu time    0.00: real time    0.00
    --------------------------------------------
      LOOP:  cpu time   21.07: real time   21.20

 eigenvalue-minimisations  :  8816
 total energy-change (2. order) :-0.7037216E+00  (-0.2563572E-01)
 number of electron     582.9999900 magnetization     117.5835307
 augmentation part      173.3959592 magnetization      92.8846897

 Broyden mixing:
  rms(total) = 0.15578E+01    rms(broyden)= 0.15578E+01
  rms(prec ) = 0.15671E+01
  weight for this iteration     100.00

 eigenvalues of (default mixing * dielectric matrix)
  average eigenvalue GAMMA=   0.5727
  1.6139  1.6139  1.2503  1.2503  0.8035  0.8035  0.4883  0.4883  0.3684  0.3684
  0.3076  0.3076  0.2604  0.0950  0.2044  0.2044  0.1819  0.1354  0.1354

 Free energy of the ion-electron system (eV)
  ---------------------------------------------------
  alpha Z        PSCENC =      1567.40908688
  Ewald energy   TEWEN  =   1629626.97574381
  -1/2 Hartree   DENC   =  -1668974.07849385
  -exchange  EXHF       =         0.00000000
  -V(xc)+E(xc)   XCENC  =      1481.27971950
  PAW double counting   =     32980.62208643   -32660.85450900
  entropy T*S    EENTRO =         0.00000000
  eigenvalues    EBANDS =     -3958.75777157
  atomic energy  EATOM  =     39312.24856084
  ---------------------------------------------------
  free energy    TOTEN  =      -625.15557696 eV

  energy without entropy =     -625.15557696  energy(sigma->0) =     -625.15557696


--------------------------------------------------------------------------------------------------------




----------------------------------------- Iteration    1(  25)  ---------------------------------------


    POTLOK:  cpu time    0.08: real time    0.08
    SETDIJ:  cpu time    0.01: real time    0.01
     EDDAV:  cpu time   21.91: real time   21.92
 BZINTS: Fermi energy: -0.300832;583.000000 electrons
         Band energy:***********;  BLOECHL correction: -0.178102
       DOS:  cpu time    0.01: real time    0.01
    CHARGE:  cpu time    0.31: real time    0.31
    MIXING:  cpu time    0.00: real time    0.00
    --------------------------------------------
      LOOP:  cpu time   22.33: real time   22.45

 eigenvalue-minimisations  :  9504
 total energy-change (2. order) :-0.6079537E+00  (-0.2616875E-01)
 number of electron     582.9999902 magnetization     117.4658419
 augmentation part      173.3486146 magnetization      92.7121670

 Broyden mixing:
[...]
   -.130E+02 0.492E-02 0.470E+03   0.133E+02 -.471E-02 -.471E+03   -.837E-01 0.446E-03 0.118E+01   -.157E+00 0.125E-03 0.462E+00
   -.165E+02 -.192E-03 -.166E+04   0.169E+02 0.185E-03 0.167E+04   -.271E+00 -.179E-04 0.120E+01   -.872E-02 0.611E-04 -.578E+01
   0.404E+01 0.202E-01 -.276E+04   -.393E+01 -.179E-01 0.277E+04   -.956E-01 -.255E-02 -.219E+00   -.214E-01 -.237E-04 -.727E+01
   -.872E+00 0.381E-02 -.391E+04   0.908E+00 -.349E-02 0.392E+04   -.253E-01 0.142E-03 -.227E+00   0.427E-01 0.475E-04 -.884E+01
   -.144E+01 0.271E-02 -.512E+04   0.146E+01 -.274E-02 0.514E+04   -.168E-01 -.907E-04 -.121E+00   0.649E-02 -.196E-04 -.107E+02
   -.493E+01 0.920E-03 -.634E+04   0.491E+01 -.112E-02 0.635E+04   0.549E-01 -.198E-03 -.196E-01   -.399E-01 -.531E-04 -.106E+02
   -.747E+01 0.614E-01 -.754E+04   0.768E+01 -.597E-01 0.754E+04   0.117E+00 -.660E-03 -.221E+00   -.322E+00 -.696E-03 -.337E+01
   0.260E+01 0.747E-01 -.334E+04   -.280E+01 -.692E-01 0.335E+04   0.116E+00 -.512E-02 -.152E+01   0.109E-01 -.468E-04 -.812E+01
   0.118E+01 0.511E-02 -.451E+04   -.119E+01 -.540E-02 0.452E+04   0.108E-01 -.549E-04 -.130E+00   -.529E-01 0.549E-04 -.971E+01
   0.246E+01 -.798E-03 -.573E+04   -.251E+01 0.685E-03 0.575E+04   -.257E-02 -.101E-04 -.691E-01   0.553E-01 -.727E-05 -.111E+02
   0.705E+01 0.487E-02 -.694E+04   -.683E+01 -.520E-02 0.695E+04   -.109E+00 -.185E-03 -.399E-01   -.841E-01 0.159E-03 -.802E+01
   -.170E+02 0.111E+01 -.802E+04   0.151E+02 -.110E+01 0.802E+04   0.205E+00 -.168E-01 -.874E+00   0.142E+01 0.211E-02 0.183E+01
   0.143E+02 -.817E-01 -.121E+04   -.141E+02 0.126E+00 0.120E+04   -.109E+00 -.440E-01 0.125E+02   -.151E-01 -.681E-04 -.469E+01
   0.273E+02 -.891E-01 0.590E+03   -.306E+02 0.135E+00 -.599E+03   0.322E+01 -.450E-01 0.737E+01   -.200E-01 -.319E-03 0.171E+01
   0.123E+03 0.963E-02 0.659E+04   -.138E+03 -.435E-02 -.662E+04   0.155E+02 -.677E-02 0.223E+02   -.140E+00 0.138E-02 0.538E+01
   0.283E+02 -.538E-01 0.238E+04   -.316E+02 0.835E-01 -.239E+04   0.330E+01 -.295E-01 0.666E+01   -.654E-01 -.248E-04 0.478E+01
   -.427E+02 0.121E-01 0.503E+04   0.502E+02 -.205E-01 -.503E+04   -.748E+01 0.844E-02 -.919E+00   -.112E-01 0.117E-03 -.201E+01
   0.410E+02 -.285E-01 0.412E+04   -.490E+02 0.425E-01 -.412E+04   0.817E+01 -.134E-01 0.287E+01   -.618E-01 -.157E-03 -.190E+01
   -.344E+02 0.353E-01 0.328E+04   0.388E+02 -.562E-01 -.327E+04   -.455E+01 0.211E-01 -.506E+01   0.776E-01 -.153E-03 0.839E+00
   0.374E+02 -.502E-02 0.585E+04   -.437E+02 0.742E-02 -.586E+04   0.622E+01 -.198E-02 0.617E+01   0.542E-01 -.231E-03 0.193E+01
   -.231E+02 0.579E-01 0.147E+04   0.242E+02 -.935E-01 -.147E+04   -.128E+01 0.362E-01 -.940E+01   0.488E-01 -.185E-03 0.501E+01
   -.240E+02 0.844E-01 -.333E+03   0.246E+02 -.136E+00 0.343E+03   -.611E+00 0.515E-01 -.816E+01   0.433E-01 0.241E-03 -.213E+01
   -.452E+02 0.766E-01 -.215E+04   0.543E+02 -.113E+00 0.216E+04   -.920E+01 0.365E-01 -.480E+01   0.903E-01 0.327E-04 -.570E+01
   0.130E+02 -.950E-01 -.211E+04   -.197E+02 0.160E+00 0.210E+04   0.668E+01 -.661E-01 0.151E+02   -.942E-01 -.120E-03 -.576E+01
   -.226E+02 -.844E-01 -.306E+03   0.252E+02 0.135E+00 0.300E+03   -.269E+01 -.494E-01 0.893E+01   -.154E-01 -.439E-03 -.243E+01
   -.256E+02 -.669E-01 0.149E+04   0.280E+02 0.102E+00 -.151E+04   -.233E+01 -.354E-01 0.755E+01   0.218E-01 0.252E-03 0.484E+01
   0.286E+02 0.138E-02 0.586E+04   -.307E+02 -.305E-02 -.586E+04   0.226E+01 0.189E-02 -.729E+01   -.142E+00 -.540E-04 0.269E+01
   -.336E+02 -.387E-01 0.326E+04   0.393E+02 0.598E-01 -.326E+04   -.562E+01 -.208E-01 0.502E+01   -.660E-01 0.155E-03 0.124E+01
   0.412E+02 0.217E-01 0.416E+04   -.481E+02 -.359E-01 -.416E+04   0.677E+01 0.143E-01 -.171E+01   0.232E-01 0.179E-03 -.199E+01
   -.440E+02 -.164E-01 0.498E+04   0.530E+02 0.240E-01 -.498E+04   -.904E+01 -.740E-02 0.211E+01   -.320E-01 -.515E-04 -.212E+01
   0.266E+02 0.481E-01 0.237E+04   -.289E+02 -.777E-01 -.237E+04   0.237E+01 0.300E-01 -.822E+01   0.633E-01 -.217E-03 0.451E+01
   -.145E+03 -.431E-01 0.663E+04   0.165E+03 0.483E-01 -.666E+04   -.206E+02 -.435E-02 0.270E+02   0.968E-02 0.122E-03 0.546E+01
   0.234E+02 0.805E-01 0.572E+03   -.246E+02 -.127E+00 -.565E+03   0.131E+01 0.467E-01 -.849E+01   -.411E-01 -.291E-04 0.205E+01
   0.155E+02 0.746E-01 -.127E+04   -.132E+02 -.120E+00 0.128E+04   -.237E+01 0.461E-01 -.107E+02   0.188E-01 0.438E-04 -.466E+01
   -.176E+03 0.667E-01 -.170E+04   0.211E+03 -.954E-01 0.172E+04   -.350E+02 0.292E-01 -.775E+01   0.154E-02 -.557E-05 -.523E+01
   -.180E+03 0.664E-01 0.145E+03   0.215E+03 -.968E-01 -.138E+03   -.354E+02 0.312E-01 -.631E+01   -.123E+00 -.141E-03 -.299E+00
   -.180E+03 0.505E-01 0.194E+04   0.215E+03 -.735E-01 -.194E+04   -.351E+02 0.232E-01 -.723E+01   0.244E-02 -.245E-04 0.566E+01
   0.185E+03 -.822E-02 0.540E+04   -.220E+03 0.109E-01 -.540E+04   0.351E+02 -.276E-02 0.557E+01   0.214E+00 0.190E-03 -.144E+01
   -.185E+03 0.230E-01 0.373E+04   0.220E+03 -.350E-01 -.373E+04   -.352E+02 0.125E-01 -.516E+01   0.178E+00 -.175E-03 -.124E+01
   0.184E+03 -.305E-01 0.368E+04   -.219E+03 0.424E-01 -.368E+04   0.353E+02 -.116E-01 0.608E+01   -.198E+00 0.994E-04 -.882E+00
   -.183E+03 0.489E-02 0.546E+04   0.218E+03 -.820E-02 -.546E+04   -.353E+02 0.376E-02 -.432E+01   -.299E+00 -.251E-03 -.117E+01
   0.180E+03 -.543E-01 0.192E+04   -.215E+03 0.763E-01 -.193E+04   0.351E+02 -.213E-01 0.650E+01   0.130E-01 -.387E-03 0.575E+01
   0.179E+03 -.801E-01 0.118E+03   -.215E+03 0.111E+00 -.124E+03   0.353E+02 -.305E-01 0.704E+01   0.800E-01 0.869E-05 -.572E+00
   0.176E+03 -.783E-01 -.170E+04   -.211E+03 0.109E+00 0.169E+04   0.347E+02 -.301E-01 0.934E+01   0.651E-02 0.600E-04 -.531E+01
   0.177E+03 0.704E-01 -.770E+03   -.212E+03 -.974E-01 0.781E+03   0.351E+02 0.272E-01 -.685E+01   0.984E-01 0.237E-03 -.402E+01
   0.179E+03 0.648E-01 0.104E+04   -.214E+03 -.956E-01 -.104E+04   0.352E+02 0.315E-01 -.728E+01   0.315E-01 -.201E-03 0.385E+01
   -.189E+03 -.289E-03 0.628E+04   0.224E+03 0.128E-02 -.629E+04   -.347E+02 -.931E-03 0.594E+01   -.152E+00 -.142E-03 0.526E+01
   0.182E+03 0.297E-01 0.284E+04   -.218E+03 -.448E-01 -.284E+04   0.351E+02 0.151E-01 -.651E+01   0.114E-01 0.240E-03 0.303E+01
   -.185E+03 -.182E-01 0.454E+04   0.220E+03 0.250E-01 -.454E+04   -.353E+02 -.671E-02 0.565E+01   -.557E-01 0.111E-03 -.220E+01
   0.185E+03 0.121E-01 0.461E+04   -.220E+03 -.191E-01 -.460E+04   0.352E+02 0.762E-02 -.455E+01   0.930E-01 -.144E-03 -.227E+01
   -.181E+03 -.388E-01 0.280E+04   0.216E+03 0.538E-01 -.281E+04   -.351E+02 -.144E-01 0.643E+01   -.192E-01 -.278E-03 0.337E+01
   0.195E+03 -.670E-02 0.630E+04   -.230E+03 0.783E-02 -.629E+04   0.348E+02 -.130E-02 -.638E+01   0.433E-01 0.953E-04 0.536E+01
   -.179E+03 -.677E-01 0.102E+04   0.214E+03 0.960E-01 -.103E+04   -.351E+02 -.282E-01 0.706E+01   -.504E-01 0.397E-03 0.370E+01
   -.175E+03 -.698E-01 -.781E+03   0.210E+03 0.977E-01 0.776E+03   -.351E+02 -.277E-01 0.841E+01   -.102E+00 0.471E-04 -.409E+01
   -.172E+02 0.628E-01 -.310E+04   0.190E+02 -.100E+00 0.312E+04   -.173E+01 0.380E-01 -.100E+02   -.347E-01 0.182E-03 -.731E+01
   -.133E+02 0.532E-01 -.415E+04   0.104E+02 -.716E-01 0.417E+04   0.287E+01 0.201E-01 -.130E+02   -.151E-01 -.151E-02 -.880E+01
   -.130E+02 0.310E-01 -.519E+04   0.102E+02 -.439E-01 0.521E+04   0.284E+01 0.134E-01 -.124E+02   -.124E-01 -.451E-03 -.959E+01
   -.185E+02 0.152E-01 -.621E+04   0.200E+02 -.235E-01 0.622E+04   -.150E+01 0.770E-02 -.986E+01   -.141E-01 0.604E-03 -.542E+01
   -.140E+03 -.832E+00 -.712E+04   0.162E+03 0.901E+00 0.714E+04   -.222E+02 -.577E-01 -.267E+02   0.464E+00 -.694E-02 0.219E+01
   0.842E+01 0.757E-01 -.262E+04   -.645E+01 -.133E+00 0.265E+04   -.198E+01 0.577E-01 -.164E+02   0.153E-01 0.135E-03 -.663E+01
   0.135E+02 0.617E-01 -.362E+04   -.117E+02 -.904E-01 0.364E+04   -.182E+01 0.291E-01 -.126E+02   -.955E-02 -.463E-03 -.787E+01
   0.130E+02 0.414E-01 -.467E+04   -.100E+02 -.582E-01 0.469E+04   -.297E+01 0.175E-01 -.128E+02   -.118E-01 -.548E-03 -.943E+01
   0.150E+02 0.229E-01 -.570E+04   -.134E+02 -.318E-01 0.572E+04   -.139E+01 0.956E-02 -.112E+02   -.131E+00 -.418E-03 -.827E+01
   0.224E+02 0.516E-01 -.669E+04   -.277E+02 -.767E-01 0.670E+04   0.544E+01 0.229E-01 -.608E+01   -.135E+00 0.300E-02 -.664E+00
   -.103E+02 -.608E-01 -.307E+04   0.422E+01 0.104E+00 0.306E+04   0.601E+01 -.435E-01 0.129E+02   0.760E-01 -.333E-03 -.727E+01
   -.123E+02 -.472E-01 -.411E+04   0.802E+01 0.687E-01 0.411E+04   0.426E+01 -.228E-01 0.128E+02   0.579E-01 0.973E-03 -.880E+01
   -.166E+02 -.276E-01 -.517E+04   0.140E+02 0.411E-01 0.516E+04   0.255E+01 -.141E-01 0.120E+02   0.325E-01 0.350E-03 -.952E+01
   -.242E+02 -.336E-01 -.621E+04   0.238E+02 0.448E-01 0.621E+04   0.297E+00 -.153E-01 0.965E+01   0.989E-01 0.343E-02 -.486E+01
   0.117E+03 0.345E+00 -.711E+04   -.133E+03 -.673E-01 0.713E+04   0.161E+02 -.284E+00 -.232E+02   0.162E+00 0.380E-02 0.250E+01
   0.190E+02 -.102E+00 -.260E+04   -.230E+02 0.155E+00 0.260E+04   0.404E+01 -.533E-01 0.314E+01   -.274E-01 -.153E-03 -.662E+01
   0.113E+02 -.602E-01 -.359E+04   -.655E+01 0.905E-01 0.358E+04   -.475E+01 -.317E-01 0.128E+02   -.258E-01 0.120E-02 -.786E+01
   0.140E+02 -.351E-01 -.464E+04   -.105E+02 0.525E-01 0.464E+04   -.349E+01 -.185E-01 0.124E+02   0.336E-01 0.561E-03 -.946E+01
   0.196E+02 -.226E-01 -.569E+04   -.181E+02 0.325E-01 0.569E+04   -.147E+01 -.100E-01 0.107E+02   0.133E-01 -.802E-04 -.788E+01
   0.392E+02 -.300E+00 -.673E+04   -.453E+02 0.377E+00 0.674E+04   0.580E+01 -.787E-01 -.523E+00   0.357E+00 0.455E-02 -.303E+00
   -.466E+00 0.187E-01 -.395E+03   0.544E+00 -.159E-01 0.396E+03   -.723E-01 -.302E-02 -.268E+00   0.115E-02 0.127E-05 -.103E+01
 -----------------------------------------------------------------------------------------------
   0.298E+01 0.466E+00 0.180E+03   0.282E-12 0.343E-12 -.100E-10   -.360E+01 -.459E+00 -.412E+01   0.604E+00 0.978E-02 -.175E+03
 
 
 POSITION                                       TOTAL-FORCE (eV/Angst)
 -----------------------------------------------------------------------------------
      0.33461      0.74152     61.90291        -0.078210      0.000047     -0.265635
      0.25284      0.73032     52.59471         0.056936      0.000616      0.266480
      4.25193      2.14857     21.77908         0.050699     -0.000656      0.242072
      0.23063      0.72170     43.24666         0.096307      0.000340      0.278141
      4.40722      2.14954     31.26644        -0.042882      0.000064     -0.249353
      0.15084      0.71712     33.81102        -0.039222     -0.000011     -0.209291
      4.35393      2.15346     40.73180         0.044126      0.000294      0.134801
      0.13147      0.71559     24.28949        -0.020678     -0.000087      0.080295
      4.31372      2.16089     50.09950         0.096662      0.000711      0.323533
      4.34979      2.17220     59.42191        -0.072845     -0.000149     -0.222866
      2.01591      0.74683     66.50375         0.110779     -0.000688     -0.275448
      2.08521      0.73589     57.26006         0.019918      0.000402     -0.050096
      2.05229      0.72549     47.92914        -0.112361      0.000391      0.443550
      2.42249      2.14874     26.50838        -0.019067      0.000082     -0.070331
      2.08879      0.71905     38.54144        -0.013394      0.000159     -0.044687
      2.41856      2.15107     36.00971         0.017561      0.000103     -0.175580
      2.14111      0.71600     29.05901         0.041897      0.000262     -0.190613
      2.50273      2.15667     45.42543        -0.098535      0.000280      0.397612
      2.52935      2.16631     54.76253        -0.027722      0.000600      0.078757
      2.60198      2.17743     64.04420         0.117513     -0.000145     -0.318442
      4.39231      2.18383     68.90228        -0.013297     -0.000389     -0.073859
      4.44804      2.18972     73.50163         0.053651      0.000328      0.072356
      4.44231      2.19336     77.84901         0.014586     -0.000324      0.027898
      4.43536      2.19571     82.21824        -0.003565     -0.000630      0.089517
      4.44475      2.19716     86.64947         0.005352      0.000126      0.006165
      2.17363      0.75429     71.33326        -0.074196      0.000159      0.063757
      2.17417      0.75877     75.67482        -0.047481     -0.000474      0.056187
      2.17378      0.76168     80.02902        -0.003083     -0.000312      0.039156
      2.17151      0.76348     84.42527         0.033540     -0.000538      0.027332
      2.18245      0.76683     88.86841        -0.228532     -0.008593      0.053508
      1.83950      0.74387     63.08531         0.104755      0.000329      0.130839
      1.68916      0.73272     53.86828        -0.039146      0.000739     -0.121604
      3.10317      2.14924     20.25613         0.027949     -0.000291     -0.023212
      1.65680      0.72331     44.53479        -0.117824      0.000030     -0.201233
      3.08662      2.14909     29.87317         0.069785      0.000000      0.103791
      1.48494      0.71789     35.19648         0.065376      0.000237      0.105384
      2.97340      2.15229     39.41029        -0.013506     -0.000031     -0.038856
      1.53613      0.71570     25.64359        -0.016965      0.000011      0.003911
      2.87034      2.15888     48.85732        -0.133247      0.000227     -0.221334
      2.90319      2.16944     58.18628         0.024453      0.000285      0.086560
      2.80842      2.18087     67.56038         0.005575      0.000105      0.045022
      0.59184      0.74998     67.83768        -0.130239     -0.001102      0.171609
      0.63840      0.73862     58.51369        -0.068498      0.000466      0.044813
      0.60828      0.72746     49.19434         0.118823      0.000184     -0.230612
      3.82136      2.14860     25.20294         0.014468     -0.000020     -0.050253
      0.70701      0.72021     39.87624         0.023799      0.000188     -0.028293
      3.75190      2.15027     34.63470        -0.071814      0.000156      0.099718
      0.82391      0.71644     30.46618        -0.074667     -0.000013      0.113275
      3.92576      2.15503     44.15710         0.107199      0.000072     -0.188598
      0.43731      0.71543     20.76579        -0.006209      0.000747     -0.041231
      3.96264      2.16383     53.51476         0.076055      0.000459     -0.095008
      4.10497      2.17502     62.87763        -0.083150      0.000165      0.152584
      3.33810      0.74482     65.11140        -0.036913      0.000289      0.167228
      3.32452      0.73372     55.78818         0.019009      0.000546      0.002273
      3.29431      0.72401     46.45453         0.037413      0.000007     -0.206007
      1.28197      2.14895     28.09419        -0.011935     -0.000081      0.062371
      3.25922      0.71824     36.99503        -0.008587      0.000094      0.037435
      1.25215      2.15185     37.56504         0.006233      0.000231      0.051378
      3.27126      0.71578     27.48987        -0.000204      0.000022      0.066126
      1.26113      2.15814     46.91608         0.023335      0.000223     -0.211319
      1.29071      2.16836     56.25015        -0.033652      0.000578     -0.028996
      1.27924      2.17931     65.46054        -0.020375      0.000191      0.156442
      3.58225      0.73960     60.46884         0.007438      0.000306      0.114572
      3.53161      0.72835     51.13359        -0.035369      0.000339     -0.131950
      0.94430      2.14857     23.28896        -0.035512     -0.000259     -0.108451
      3.54441      0.72067     41.74535        -0.018596      0.000095     -0.106923
      1.00924      2.15000     32.85140        -0.008510      0.000047      0.090861
      3.54964      0.71663     32.23412        -0.000071      0.000246      0.080723
      1.03638      2.15445     42.24554        -0.007747      0.000106     -0.106523
      3.43109      0.71555     22.80350         0.013010     -0.000259     -0.116308
      1.03793      2.16287     51.57759         0.002585      0.000325     -0.153447
      1.09543      2.17408     60.86904         0.042549      0.000123      0.101381
      2.95553      2.18767     72.25981         0.039424      0.000642     -0.027305
      2.91887      2.19204     76.66449         0.005606     -0.000041     -0.016018
      2.92753      2.19484     81.01699        -0.020711     -0.000099      0.019394
      2.98103      2.19656     85.36307        -0.028165     -0.000180      0.045055
      2.93863      2.19835     89.84921         0.083102      0.004828      0.146087
      3.63481      0.75142     69.91016         0.009548      0.000632      0.001379
      3.69131      0.75706     74.47975         0.041165     -0.000205     -0.047835
      3.69265      0.76058     78.83981         0.009053     -0.000061     -0.000809
      3.65706      0.76282     83.18895         0.044720      0.000062      0.032323
      3.56717      0.76414     87.53039        -0.002505      0.000517      0.043021
      0.64405      0.75628     72.46938         0.055535     -0.000803     -0.122742
      0.64889      0.76008     76.84075         0.006723     -0.000481     -0.020471
      0.66476      0.76254     81.23162         0.008108     -0.000511     -0.007410
      0.72120      0.76398     85.69882        -0.023088     -0.000881      0.041846
      1.10035      0.78531     90.39503         0.131756     -0.002893     -0.127545
      1.42650      2.18607     70.16767        -0.058648     -0.000171      0.020339
      1.44337      2.19139     74.65637        -0.022185     -0.000425     -0.022098
      1.42600      2.19447     79.03101        -0.017925     -0.000687     -0.011798
      1.38538      2.19634     83.45419         0.013446     -0.000371     -0.007064
      1.22774      2.19876     88.02762         0.035762      0.003468     -0.011928
      2.10597      0.75187     68.91205         0.007753     -0.000423     -0.039469
 -----------------------------------------------------------------------------------
    total drift:                               -0.010925      0.016893     -0.017762


--------------------------------------------------------------------------------------------------------



  FREE ENERGIE OF THE ION-ELECTRON SYSTEM (eV)
  ---------------------------------------------------
  free  energy   TOTEN  =      -643.82213269 eV

  energy  without entropy=     -643.82213269  energy(sigma->0) =     -643.82213269
 


--------------------------------------------------------------------------------------------------------


    POTLOK:  cpu time    0.10: real time    0.10


--------------------------------------------------------------------------------------------------------


     LOOP+:  cpu time 1324.33: real time 1333.55
    4ORBIT:  cpu time    0.00: real time    0.00
 BZINTS: Fermi energy:  0.286708;583.000000 electrons
         Band energy:***********;  BLOECHL correction: -0.074236

 total amount of memory used by VASP on root node    77474. kBytes
========================================================================

   base      :      30000. kBytes
   nonl-proj :      12812. kBytes
   fftplans  :       1804. kBytes
   grid      :       4619. kBytes
   one-center:        497. kBytes
   wavefun   :      27742. kBytes
 
  
  
 General timing and accounting informations for this job:
 ========================================================
  
                  Total CPU time used (sec):     1331.332
                            User time (sec):     1328.075
                          System time (sec):        3.257
                         Elapsed time (sec):     1341.585
  
                   Maximum memory used (kb):      205800.
                   Average memory used (kb):           0.
  
                          Minor page faults:        65550
                          Major page faults:            0
                 Voluntary context switches:        93698
