 vasp.5.3.3 18Dez12 (build May 12 2016 12:04:25) complex                        
  
 executed on             LinuxIFC date 2019.05.18  12:25:47
 running on   32 total cores
 distrk:  each k-point on   32 cores,    1 groups
 distr:  one band on NCORES_PER_BAND=   4 cores,    8 groups


--------------------------------------------------------------------------------------------------------


 INCAR:
 POTCAR:    PAW_PBE Mn 06Sep2000                  
 POTCAR:    PAW_PBE O 08Apr2002                   
 POTCAR:    PAW_PBE Mn 06Sep2000                  
  local pseudopotential read in
  partial core-charges read in
  partial kinetic energy density read in
  atomic valenz-charges read in
  non local Contribution for L=           2  read in
    real space projection operators read in
  non local Contribution for L=           2  read in
    real space projection operators read in
  non local Contribution for L=           0  read in
    real space projection operators read in
  non local Contribution for L=           0  read in
    real space projection operators read in
  non local Contribution for L=           1  read in
    real space projection operators read in
  non local Contribution for L=           1  read in
    real space projection operators read in
    PAW grid and wavefunctions read in
 
   number of l-projection  operators is LMAX  =           6
   number of lm-projection operators is LMMAX =          18
 
 POTCAR:    PAW_PBE O 08Apr2002                   
  local pseudopotential read in
  partial core-charges read in
  partial kinetic energy density read in
  kinetic energy density of atom read in
  atomic valenz-charges read in
  non local Contribution for L=           0  read in
    real space projection operators read in
  non local Contribution for L=           0  read in
    real space projection operators read in
  non local Contribution for L=           1  read in
    real space projection operators read in
  non local Contribution for L=           1  read in
    real space projection operators read in
    PAW grid and wavefunctions read in
 
   number of l-projection  operators is LMAX  =           4
   number of lm-projection operators is LMMAX =           8
 

 ----------------------------------------------------------------------------- 
|                                                                             |
|  ADVICE TO THIS USER RUNNING 'VASP/VAMP'   (HEAR YOUR MASTER'S VOICE ...):  |
|                                                                             |
|      You enforced a specific xc-type in the INCAR file,                     |
|      a different type was found on the POTCAR file                          |
|          I HOPE YOU KNOW, WHAT YOU ARE  DOING                               |
|                                                                             |
 ----------------------------------------------------------------------------- 

  PAW_PBE Mn 06Sep2000                  :
 energy of atom  1       EATOM= -416.7541
 kinetic energy error for atom=    0.0024 (will be added to EATOM!!)
  PAW_PBE O 08Apr2002                   :
 energy of atom  2       EATOM= -432.3788
 kinetic energy error for atom=    0.0208 (will be added to EATOM!!)
 
 
 POSCAR: (Mn O2)4  (P1) ~ POSCAR_1 (VASP)        
  positions in direct lattice
  velocities in cartesian coordinates
 exchange correlation table for  LEXCH =       14
   RHO(1)=    0.500       N(1)  =     2000
   RHO(2)=  100.500       N(2)  =     4000
 


--------------------------------------------------------------------------------------------------------


 ion  position               nearest neighbor table
   1  0.000  0.000  0.000-   8 1.90   7 1.90  10 1.90   9 1.90   6 1.90   5 1.90   4 2.84   4 2.84
                             3 2.84   3 2.84   2 2.84   2 2.84
   2  0.000  0.500  0.000-   6 1.90   5 1.90  12 1.90  11 1.90   8 1.90   7 1.90   3 2.84   3 2.84
                             4 2.84   4 2.84   1 2.84   1 2.84
   3  0.500  0.000  0.000-  12 1.90  11 1.90   6 1.90   5 1.90  10 1.90   9 1.90   2 2.84   2 2.84
                             1 2.84   1 2.84   4 2.84   4 2.84
   4  0.500  0.500  0.000-  10 1.90   9 1.90   8 1.90   7 1.90  12 1.90  11 1.90   1 2.84   1 2.84
                             2 2.84   2 2.84   3 2.84   3 2.84
   5  0.192  0.813  0.137-   2 1.90   3 1.90   1 1.90
   6  0.808  0.187  0.863-   2 1.90   3 1.90   1 1.90
   7  0.192  0.313  0.137-   1 1.90   4 1.90   2 1.90
   8  0.808  0.687  0.863-   1 1.90   4 1.90   2 1.90
   9  0.692  0.813  0.137-   4 1.90   1 1.90   3 1.90
  10  0.308  0.187  0.863-   4 1.90   1 1.90   3 1.90
  11  0.692  0.313  0.137-   3 1.90   2 1.90   4 1.90
  12  0.308  0.687  0.863-   3 1.90   2 1.90   4 1.90
 
  LATTYP: Found a triclinic cell.
 ALAT       =    15.0043745173
 B/A-ratio  =     0.9755523176
 C/A-ratio  =     1.3225027248
 COS(alpha) =     0.0030423367
 COS(beta)  =     0.5844382475
 COS(gamma) =     0.8119713297
  
  Lattice vectors:
  
 A1 = ( -14.0732455264,  -5.2027146611,   0.0823113790)
 A2 = ( -12.8004147351,   0.4604249644,   7.0848662509)
 A3 = (  -8.2158441985, -11.4431521668, -13.9753986199)


Analysis of symmetry for initial positions (statically):
=====================================================================
 Subroutine PRICEL returns following result:
 
  LATTYP: Found a triclinic cell.
 ALAT       =     2.8357323978
 B/A-ratio  =     1.0000794810
 C/A-ratio  =     2.5332776032
 COS(alpha) =     0.0083289242
 COS(beta)  =     0.1884146271
 COS(gamma) =     0.5001283856
  
  Lattice vectors:
  
 A1 = (  -2.8350913080,  -0.0584364579,   0.0148555620)
 A2 = (  -1.4686511609,   2.4260479569,   0.0034109964)
 A3 = (  -1.3750418050,  -0.7526072538,  -7.0105884411)
 
   4 primitive cells build up your supercell.
 

 Routine SETGRP: Setting up the symmetry group for a 
 triclinic supercell.


 Subroutine GETGRP returns: Found  2 space group operations
 (whereof  2 operations were pure point group operations)
 out of a pool of  2 trial point group operations.


The static configuration has the point symmetry S_2 .


Analysis of symmetry for dynamics (positions and initial velocities):
=====================================================================
 Subroutine PRICEL returns following result:
 
  LATTYP: Found a triclinic cell.
 ALAT       =     2.8357323978
 B/A-ratio  =     1.0000794810
 C/A-ratio  =     2.5332776032
 COS(alpha) =     0.0083289242
 COS(beta)  =     0.1884146271
 COS(gamma) =     0.5001283856
  
  Lattice vectors:
  
 A1 = (  -2.8350913080,  -0.0584364579,   0.0148555620)
 A2 = (  -1.4686511609,   2.4260479569,   0.0034109964)
 A3 = (  -1.3750418050,  -0.7526072538,  -7.0105884411)
 
   4 primitive cells build up your supercell.
 

 Routine SETGRP: Setting up the symmetry group for a 
 triclinic supercell.


 Subroutine GETGRP returns: Found  2 space group operations
 (whereof  2 operations were pure point group operations)
 out of a pool of  2 trial point group operations.


The dynamic configuration has the point symmetry S_2 .


Analysis of magnetic symmetry:
=====================================================================

 Subroutine MAGSYM returns: Found  2 space group operations
 (whereof  2 operations were pure point group operations)
 out of a pool of  2 trial space group operations
 (whereof  2 operations were pure point group operations)
 and found also     4 'primitive' translations


The magnetic configuration has the point symmetry S_2 .


 irot  :   1
 --------------------------------------------------------------------
 isymop:   1   0   0
           0   1   0
           0   0   1

 gtrans:     0.0000000     0.0000000     0.0000000

 ptrans:     0.0000000     0.0000000     0.0000000
 rotmap:
 (   1->   1)  (   2->   2)  (   3->   3)  (   4->   4)  (   5->   5) 
 (   6->   6)  (   7->   7)  (   8->   8)  (   9->   9)  (  10->  10) 
 (  11->  11)  (  12->  12) 

 ptrans:     0.5000000     0.0000000     0.0000000
 rotmap:
 (   1->   3)  (   2->   4)  (   3->   1)  (   4->   2)  (   5->   9) 
 (   6->  10)  (   7->  11)  (   8->  12)  (   9->   5)  (  10->   6) 
 (  11->   7)  (  12->   8) 

 ptrans:     0.0000000     0.5000000     0.0000000
 rotmap:
 (   1->   2)  (   2->   1)  (   3->   4)  (   4->   3)  (   5->   7) 
 (   6->   8)  (   7->   5)  (   8->   6)  (   9->  11)  (  10->  12) 
 (  11->   9)  (  12->  10) 

 ptrans:     0.5000000     0.5000000     0.0000000
 rotmap:
 (   1->   4)  (   2->   3)  (   3->   2)  (   4->   1)  (   5->  11) 
 (   6->  12)  (   7->   9)  (   8->  10)  (   9->   7)  (  10->   8) 
 (  11->   5)  (  12->   6) 


 irot  :   2
 --------------------------------------------------------------------
 isymop:  -1   0   0
           0  -1   0
           0   0  -1

 gtrans:     0.0000000     0.0000000     0.0000000

 ptrans:     0.0000000     0.0000000     0.0000000
 rotmap:
 (   1->   1)  (   2->   2)  (   3->   3)  (   4->   4)  (   5->   6) 
 (   6->   5)  (   7->   8)  (   8->   7)  (   9->  10)  (  10->   9) 
 (  11->  12)  (  12->  11) 

 ptrans:     0.5000000     0.0000000     0.0000000
 rotmap:
 (   1->   3)  (   2->   4)  (   3->   1)  (   4->   2)  (   5->  10) 
 (   6->   9)  (   7->  12)  (   8->  11)  (   9->   6)  (  10->   5) 
 (  11->   8)  (  12->   7) 

 ptrans:     0.0000000     0.5000000     0.0000000
 rotmap:
 (   1->   2)  (   2->   1)  (   3->   4)  (   4->   3)  (   5->   8) 
 (   6->   7)  (   7->   6)  (   8->   5)  (   9->  12)  (  10->  11) 
 (  11->  10)  (  12->   9) 

 ptrans:     0.5000000     0.5000000     0.0000000
 rotmap:
 (   1->   4)  (   2->   3)  (   3->   2)  (   4->   1)  (   5->  12) 
 (   6->  11)  (   7->  10)  (   8->   9)  (   9->   8)  (  10->   7) 
 (  11->   6)  (  12->   5) 
 
 
 KPOINTS: Automatic mesh                          

Automatic generation of k-mesh.
Space group operators:
 irot       det(A)        alpha          n_x          n_y          n_z        tau_x        tau_y        tau_z
    1     1.000000     0.000000     1.000000     0.000000     0.000000     0.000000     0.000000     0.000000
    2    -1.000000     0.000000     1.000000     0.000000     0.000000     0.000000     0.000000     0.000000
 
 Subroutine IBZKPT returns following result:
 ===========================================
 
 Found     76 irreducible k-points:
 
 Following reciprocal coordinates:
            Coordinates               Weight
  0.000000  0.000000  0.000000      1.000000
  0.166667 -0.000000 -0.000000      2.000000
  0.333333 -0.000000 -0.000000      2.000000
  0.500000  0.000000  0.000000      1.000000
 -0.000000  0.166667  0.000000      2.000000
  0.166667  0.166667  0.000000      2.000000
  0.333333  0.166667 -0.000000      2.000000
  0.500000  0.166667 -0.000000      2.000000
 -0.333333  0.166667 -0.000000      2.000000
 -0.166667  0.166667  0.000000      2.000000
  0.000000  0.333333 -0.000000      2.000000
  0.166667  0.333333 -0.000000      2.000000
  0.333333  0.333333 -0.000000      2.000000
  0.500000  0.333333 -0.000000      2.000000
 -0.333333  0.333333  0.000000      2.000000
 -0.166667  0.333333  0.000000      2.000000
  0.000000  0.500000 -0.000000      1.000000
  0.166667  0.500000 -0.000000      2.000000
  0.333333  0.500000 -0.000000      2.000000
  0.500000  0.500000 -0.000000      1.000000
  0.000000 -0.000000  0.250000      2.000000
  0.166667 -0.000000  0.250000      2.000000
  0.333333 -0.000000  0.250000      2.000000
  0.500000 -0.000000  0.250000      2.000000
 -0.333333  0.000000  0.250000      2.000000
 -0.166667  0.000000  0.250000      2.000000
 -0.000000  0.166667  0.250000      2.000000
  0.166667  0.166667  0.250000      2.000000
  0.333333  0.166667  0.250000      2.000000
  0.500000  0.166667  0.250000      2.000000
 -0.333333  0.166667  0.250000      2.000000
 -0.166667  0.166667  0.250000      2.000000
 -0.000000  0.333333  0.250000      2.000000
  0.166667  0.333333  0.250000      2.000000
  0.333333  0.333333  0.250000      2.000000
  0.500000  0.333333  0.250000      2.000000
 -0.333333  0.333333  0.250000      2.000000
 -0.166667  0.333333  0.250000      2.000000
 -0.000000  0.500000  0.250000      2.000000
  0.166667  0.500000  0.250000      2.000000
  0.333333  0.500000  0.250000      2.000000
  0.500000  0.500000  0.250000      2.000000
 -0.333333  0.500000  0.250000      2.000000
 -0.166667  0.500000  0.250000      2.000000
  0.000000 -0.333333  0.250000      2.000000
  0.166667 -0.333333  0.250000      2.000000
  0.333333 -0.333333  0.250000      2.000000
  0.500000 -0.333333  0.250000      2.000000
 -0.333333 -0.333333  0.250000      2.000000
 -0.166667 -0.333333  0.250000      2.000000
  0.000000 -0.166667  0.250000      2.000000
  0.166667 -0.166667  0.250000      2.000000
  0.333333 -0.166667  0.250000      2.000000
  0.500000 -0.166667  0.250000      2.000000
 -0.333333 -0.166667  0.250000      2.000000
 -0.166667 -0.166667  0.250000      2.000000
  0.000000 -0.000000  0.500000      1.000000
  0.166667 -0.000000  0.500000      2.000000
  0.333333 -0.000000  0.500000      2.000000
  0.500000 -0.000000  0.500000      1.000000
 -0.000000  0.166667  0.500000      2.000000
  0.166667  0.166667  0.500000      2.000000
  0.333333  0.166667  0.500000      2.000000
  0.500000  0.166667  0.500000      2.000000
 -0.333333  0.166667  0.500000      2.000000
 -0.166667  0.166667  0.500000      2.000000
 -0.000000  0.333333  0.500000      2.000000
  0.166667  0.333333  0.500000      2.000000
  0.333333  0.333333  0.500000      2.000000
  0.500000  0.333333  0.500000      2.000000
 -0.333333  0.333333  0.500000      2.000000
 -0.166667  0.333333  0.500000      2.000000
 -0.000000  0.500000  0.500000      1.000000
  0.166667  0.500000  0.500000      2.000000
  0.333333  0.500000  0.500000      2.000000
  0.500000  0.500000  0.500000      1.000000
 
 Following cartesian coordinates:
            Coordinates               Weight
  0.000000  0.000000  0.000000      1.000000
  0.029054  0.017582  0.004301      2.000000
  0.058107  0.035164  0.008602      2.000000
  0.087161  0.052746  0.012902      1.000000
 -0.000717  0.033920 -0.003501      2.000000
  0.028336  0.051502  0.000800      2.000000
  0.057390  0.069084  0.005101      2.000000
  0.086443  0.086666  0.009402      2.000000
 -0.058825 -0.001244 -0.012102      2.000000
 -0.029771  0.016338 -0.007801      2.000000
 -0.001435  0.067840 -0.007001      2.000000
  0.027619  0.085422 -0.002701      2.000000
  0.056672  0.103004  0.001600      2.000000
  0.085726  0.120586  0.005901      2.000000
 -0.059542  0.032676 -0.015603      2.000000
 -0.030489  0.050258 -0.011302      2.000000
 -0.002152  0.101760 -0.010502      1.000000
  0.026901  0.119342 -0.006201      2.000000
  0.055955  0.136924 -0.001901      2.000000
  0.085008  0.154506  0.002400      1.000000
  0.000185  0.000062  0.035617      2.000000
  0.029239  0.017644  0.039918      2.000000
  0.058293  0.035226  0.044219      2.000000
  0.087346  0.052808  0.048520      2.000000
 -0.057922 -0.035102  0.027016      2.000000
 -0.028868 -0.017520  0.031317      2.000000
 -0.000532  0.033982  0.032117      2.000000
  0.028522  0.051564  0.036417      2.000000
  0.057575  0.069146  0.040718      2.000000
  0.086629  0.086728  0.045019      2.000000
 -0.058639 -0.001182  0.023515      2.000000
 -0.029586  0.016400  0.027816      2.000000
 -0.001250  0.067902  0.028616      2.000000
  0.027804  0.085484  0.032917      2.000000
  0.056858  0.103066  0.037217      2.000000
  0.085911  0.120648  0.041518      2.000000
 -0.059357  0.032738  0.020014      2.000000
 -0.030303  0.050320  0.024315      2.000000
 -0.001967  0.101822  0.025115      2.000000
  0.027087  0.119404  0.029416      2.000000
  0.056140  0.136986  0.033717      2.000000
  0.085194  0.154568  0.038018      2.000000
 -0.060074  0.066658  0.016514      2.000000
 -0.031021  0.084240  0.020815      2.000000
  0.001620 -0.067778  0.042619      2.000000
  0.030674 -0.050196  0.046919      2.000000
  0.059728 -0.032614  0.051220      2.000000
  0.088781 -0.015032  0.055521      2.000000
 -0.056487 -0.102942  0.034017      2.000000
 -0.027433 -0.085360  0.038318      2.000000
  0.000903 -0.033858  0.039118      2.000000
  0.029957 -0.016276  0.043419      2.000000
  0.059010  0.001306  0.047720      2.000000
  0.088064  0.018888  0.052020      2.000000
 -0.057204 -0.069022  0.030516      2.000000
 -0.028151 -0.051440  0.034817      2.000000
  0.000371  0.000124  0.071235      1.000000
  0.029424  0.017706  0.075535      2.000000
  0.058478  0.035288  0.079836      2.000000
  0.087532  0.052871  0.084137      1.000000
 -0.000347  0.034044  0.067734      2.000000
  0.028707  0.051626  0.072035      2.000000
  0.057761  0.069208  0.076335      2.000000
  0.086814  0.086791  0.080636      2.000000
 -0.058454 -0.001120  0.059132      2.000000
 -0.029400  0.016462  0.063433      2.000000
 -0.001064  0.067964  0.064233      2.000000
  0.027989  0.085546  0.068534      2.000000
  0.057043  0.103128  0.072835      2.000000
  0.086097  0.120711  0.077136      2.000000
 -0.059172  0.032800  0.055632      2.000000
 -0.030118  0.050382  0.059933      2.000000
 -0.001782  0.101884  0.060733      1.000000
  0.027272  0.119466  0.065033      2.000000
  0.056326  0.137048  0.069334      2.000000
  0.085379  0.154631  0.073635      1.000000
 
 TETIRR: Found    432 inequivalent tetrahedra from      864


--------------------------------------------------------------------------------------------------------




 Dimension of arrays:
   k-points           NKPTS =     76   k-points in BZ     NKDIM =     76   number of bands    NBANDS=     48
   number of dos      NEDOS =    301   number of ions     NIONS =     12
   non local maximal  LDIM  =      6   non local SUM 2l+1 LMDIM =     18
   total plane-waves  NPLWV =  40960
   max r-space proj   IRMAX =      1   max aug-charges    IRDMAX=   7901
   dimension x,y,z NGX =    32 NGY =   32 NGZ =   40
   dimension x,y,z NGXF=    64 NGYF=   64 NGZF=   80
   support grid    NGXF=    64 NGYF=   64 NGZF=   80
   ions per type =               4   8
 NGX,Y,Z   is equivalent  to a cutoff of   9.38,  9.38,  9.22 a.u.
 NGXF,Y,Z  is equivalent  to a cutoff of  18.76, 18.76, 18.45 a.u.


 I would recommend the setting:
   dimension x,y,z NGX =    32 NGY =   32 NGZ =   40
 SYSTEM =  (Mn O2)4  (P1) ~ POSCAR_1 (VASP)        
 POSCAR =  (Mn O2)4  (P1) ~ POSCAR_1 (VASP)        

 Startparameter for this run:
   NWRITE =      1    write-flag & timer
   PREC   = normal    normal or accurate (medium, high low for compatibility)
   ISTART =      0    job   : 0-new  1-cont  2-samecut
   ICHARG =      2    charge: 1-file 2-atom 10-const
   ISPIN  =      2    spin polarized calculation?
   LNONCOLLINEAR =      F non collinear calculations
   LSORBIT =      F    spin-orbit coupling
   INIWAV =      1    electr: 0-lowe 1-rand  2-diag
   LASPH  =      F    aspherical Exc in radial PAW
   METAGGA=      F    non-selfconsistent MetaGGA calc.

 Electronic Relaxation 1
   ENCUT  =  520.0 eV  38.22 Ry    6.18 a.u.  10.55 10.55 13.40*2*pi/ulx,y,z
   ENINI  =  520.0     initial cutoff
   ENAUG  =  605.4 eV  augmentation charge cutoff
   NELM   =     60;   NELMIN=  2; NELMDL= -5     # of ELM steps 
   EDIFF  = 0.1E-03   stopping-criterion for ELM
   LREAL  =      F    real-space projection
   NLSPLINE    = F    spline interpolate recip. space projectors
   LCOMPAT=      F    compatible to vasp.4.4
   GGA_COMPAT  = T    GGA compatible to vasp.4.4-vasp.4.6
   LMAXPAW     = -100 max onsite density
   LMAXMIX     =    2 max onsite mixed and CHGCAR
   VOSKOWN=      1    Vosko Wilk Nusair interpolation
   ROPT   =    0.00000   0.00000
 Ionic relaxation
   EDIFFG = 0.1E-02   stopping-criterion for IOM
   NSW    =      0    number of steps for IOM
   NBLOCK =      1;   KBLOCK =      1    inner block; outer block 
   IBRION =     -1    ionic relax: 0-MD 1-quasi-New 2-CG
   NFREE  =      0    steps in history (QN), initial steepest desc. (CG)
   ISIF   =      2    stress and relaxation
   IWAVPR =     10    prediction:  0-non 1-charg 2-wave 3-comb
   ISYM   =      2    0-nonsym 1-usesym 2-fastsym
   LCORR  =      T    Harris-Foulkes like correction to forces

   POTIM  = 0.5000    time-step for ionic-motion
   TEIN   =    0.0    initial temperature
   TEBEG  =    0.0;   TEEND  =   0.0 temperature during run
   SMASS  =  -3.00    Nose mass-parameter (am)
   estimated Nose-frequenzy (Omega)   =  0.10E-29 period in steps =****** mass=  -0.735E-27a.u.
   SCALEE = 1.0000    scale energy and forces
   NPACO  =    256;   APACO  = 16.0  distance and # of slots for P.C.
   PSTRESS=    0.0 pullay stress

  Mass of Ions in am
   POMASS =  54.94 16.00
  Ionic Valenz
   ZVAL   =   7.00  6.00
  Atomic Wigner-Seitz radii
   RWIGS  =  -1.00 -1.00
  virtual crystal weights 
   VCA    =   1.00  1.00
   NELECT =      76.0000    total number of electrons
   NUPDOWN=      -1.0000    fix difference up-down

 DOS related values:
   EMIN   =  10.00;   EMAX   =-10.00  energy-range for DOS
   EFERMI =   0.00
   ISMEAR =    -5;   SIGMA  =   0.20  broadening in eV -4-tet -1-fermi 0-gaus

 Electronic relaxation 2 (details)
   IALGO  =     38    algorithm
   LDIAG  =      T    sub-space diagonalisation (order eigenvalues)
   LSUBROT=      T    optimize rotation matrix (better conditioning)
   TURBO    =      0    0=normal 1=particle mesh
   IRESTART =      0    0=no restart 2=restart with 2 vectors
   NREBOOT  =      0    no. of reboots
   NMIN     =      0    reboot dimension
   EREF     =   0.00    reference energy to select bands
   IMIX   =      4    mixing-type and parameters
     AMIX     =   0.40;   BMIX     =  1.00
     AMIX_MAG =   1.60;   BMIX_MAG =  1.00
     AMIN     =   0.10
     WC   =   100.;   INIMIX=   1;  MIXPRE=   1;  MAXMIX= -45

 Intra band minimization:
   WEIMIN = 0.0000     energy-eigenvalue tresh-hold
   EBREAK =  0.52E-06  absolut break condition
   DEPER  =   0.30     relativ break condition  

   TIME   =   0.40     timestep for ELM

  volume/ion in A,a.u.               =      16.29       109.95
  Fermi-wavevector in a.u.,A,eV,Ry     =   1.194765  2.257778 19.421817  1.427463
  Thomas-Fermi vector in A             =   2.330747
 
 Write flags
   LWAVE  =      F    write WAVECAR
   LCHARG =      F    write CHGCAR
   LVTOT  =      F    write LOCPOT, total local potential
   LVHAR  =      F    write LOCPOT, Hartree potential only
   LELF   =      F    write electronic localiz. function (ELF)
   LORBIT =      0    0 simple, 1 ext, 2 COOP (PROOUT)


 Dipole corrections
   LMONO  =      F    monopole corrections only (constant potential shift)
   LDIPOL =      F    correct potential (dipole corrections)
   IDIPOL =      0    1-x, 2-y, 3-z, 4-all directions 
   EPSILON=  1.0000000 bulk dielectric constant

 Exchange correlation treatment:
   GGA     =    PS    GGA type
   LEXCH   =    14    internal setting for exchange type
   VOSKOWN=      1    Vosko Wilk Nusair interpolation
   LHFCALC =     F    Hartree Fock is set to
   LHFONE  =     F    Hartree Fock one center treatment
   AEXX    =    0.0000 exact exchange contribution

 Linear response parameters
   LEPSILON=     F    determine dielectric tensor
   LRPA    =     F    only Hartree local field effects (RPA)
   LNABLA  =     F    use nabla operator in PAW spheres
   LVEL    =     F    velocity operator in full k-point grid
   LINTERFAST=   F  fast interpolation
   KINTER  =     0    interpolate to denser k-point grid
   CSHIFT  =0.1000    complex shift for real part using Kramers Kronig
   OMEGAMAX=  -1.0    maximum frequency
   DEG_THRESHOLD= 0.2000000E-02 threshold for treating states as degnerate
   RTIME   =    0.100 relaxation time in fs

 Orbital magnetization related:
   ORBITALMAG=     F  switch on orbital magnetization
   LCHIMAG   =     F  perturbation theory with respect to B field
   DQ        =  0.001000  dq finite difference perturbation B field



--------------------------------------------------------------------------------------------------------


 Static calculation
 charge density and potential will be updated during run
 spin polarized calculation
 Variant of blocked Davidson
 Davidson routine will perform the subspace rotation
 perform sub-space diagonalisation
    after iterative eigenvector-optimisation
 modified Broyden-mixing scheme, WC =      100.0
 initial mixing is a Kerker type mixing with AMIX =  0.4000 and BMIX =      1.0000
 Hartree-type preconditioning will be used
 using additional bands           10
 reciprocal scheme for non local part
 use partial core corrections
 calculate Harris-corrections to forces 
   (improved forces if not selfconsistent)
 use gradient corrections 
 use of overlap-Matrix (Vanderbilt PP)
 Fermi weights with tetrahedron method with Bloechl corrections


--------------------------------------------------------------------------------------------------------


  energy-cutoff  :      520.00
  volume of cell :      195.52
      direct lattice vectors                 reciprocal lattice vectors
     5.670182616  0.116872916 -0.029711124     0.174321979  0.105492621  0.025804607
    -2.937302322  4.852095914  0.006821993    -0.004304980  0.203519938 -0.021004093
    -1.460049503  0.694170796  7.025444003     0.000741401  0.000248510  0.142469284

  length of vectors
     5.671464796  5.671915569  7.209055492     0.205384330  0.204646207  0.142471429


 
 k-points in units of 2pi/SCALE and weight: Automatic mesh                          
   0.00000000  0.00000000  0.00000000       0.007
   0.02905366  0.01758210  0.00430077       0.014
   0.05810733  0.03516421  0.00860154       0.014
   0.08716099  0.05274631  0.01290230       0.007
  -0.00071750  0.03391999 -0.00350068       0.014
   0.02833617  0.05150209  0.00080009       0.014
   0.05738983  0.06908420  0.00510085       0.014
   0.08644349  0.08666630  0.00940162       0.014
  -0.05882482 -0.00124422 -0.01210222       0.014
  -0.02977116  0.01633789 -0.00780145       0.014
  -0.00143499  0.06783998 -0.00700136       0.014
   0.02761867  0.08542208 -0.00270060       0.014
   0.05667233  0.10300419  0.00160017       0.014
   0.08572600  0.12058629  0.00590094       0.014
  -0.05954232  0.03267577 -0.01560290       0.014
  -0.03048866  0.05025788 -0.01130213       0.014
  -0.00215249  0.10175997 -0.01050205       0.007
   0.02690117  0.11934207 -0.00620128       0.014
   0.05595484  0.13692418 -0.00190051       0.014
   0.08500850  0.15450628  0.00240026       0.007
   0.00018535  0.00006213  0.03561732       0.014
   0.02923901  0.01764423  0.03991809       0.014
   0.05829268  0.03522633  0.04421886       0.014
   0.08734634  0.05280844  0.04851962       0.014
  -0.05792198 -0.03510208  0.02701579       0.014
  -0.02886831 -0.01751998  0.03131655       0.014
  -0.00053215  0.03398212  0.03211664       0.014
   0.02852152  0.05156422  0.03641741       0.014
   0.05757518  0.06914632  0.04071817       0.014
   0.08662884  0.08672843  0.04501894       0.014
  -0.05863947 -0.00118209  0.02351510       0.014
  -0.02958581  0.01640001  0.02781587       0.014
  -0.00124964  0.06790211  0.02861596       0.014
   0.02780402  0.08548421  0.03291672       0.014
   0.05685768  0.10306631  0.03721749       0.014
   0.08591135  0.12064842  0.04151826       0.014
  -0.05935697  0.03273790  0.02001442       0.014
  -0.03030331  0.05032000  0.02431519       0.014
  -0.00196714  0.10182210  0.02511527       0.014
   0.02708652  0.11940420  0.02941604       0.014
   0.05614019  0.13698630  0.03371681       0.014
   0.08519385  0.15456841  0.03801758       0.014
  -0.06007447  0.06665789  0.01651374       0.014
  -0.03102080  0.08423999  0.02081451       0.014
   0.00162034 -0.06777785  0.04261869       0.014
   0.03067401 -0.05019575  0.04691945       0.014
   0.05972767 -0.03261365  0.05122022       0.014
   0.08878133 -0.01503154  0.05552099       0.014
  -0.05648698 -0.10294206  0.03401715       0.014
  -0.02743332 -0.08535996  0.03831792       0.014
   0.00090285 -0.03385786  0.03911800       0.014
   0.02995651 -0.01627576  0.04341877       0.014
   0.05901017  0.00130634  0.04771954       0.014
   0.08806384  0.01888845  0.05202031       0.014
  -0.05720448 -0.06902207  0.03051647       0.014
  -0.02815082 -0.05143997  0.03481724       0.014
   0.00037070  0.00012425  0.07123464       0.007
   0.02942436  0.01770636  0.07553541       0.014
   0.05847803  0.03528846  0.07983618       0.014
   0.08753169  0.05287057  0.08413695       0.007
  -0.00034680  0.03404424  0.06773396       0.014
   0.02870687  0.05162635  0.07203473       0.014
   0.05776053  0.06920845  0.07633550       0.014
   0.08681419  0.08679056  0.08063626       0.014
  -0.05845412 -0.00111996  0.05913242       0.014
  -0.02940046  0.01646214  0.06343319       0.014
  -0.00106429  0.06796423  0.06423328       0.014
   0.02798937  0.08554634  0.06853405       0.014
   0.05704303  0.10312844  0.07283481       0.014
   0.08609670  0.12071054  0.07713558       0.014
  -0.05917162  0.03280003  0.05563174       0.014
  -0.03011796  0.05038213  0.05993251       0.014
  -0.00178179  0.10188422  0.06073260       0.007
   0.02727187  0.11946633  0.06503336       0.014
   0.05632554  0.13704843  0.06933413       0.014
   0.08537920  0.15463053  0.07363490       0.007
 
 k-points in reciprocal lattice and weights: Automatic mesh                          
   0.00000000  0.00000000  0.00000000       0.007
   0.16666667 -0.00000000 -0.00000000       0.014
   0.33333333 -0.00000000 -0.00000000       0.014
   0.50000000  0.00000000  0.00000000       0.007
  -0.00000000  0.16666667  0.00000000       0.014
   0.16666667  0.16666667  0.00000000       0.014
   0.33333333  0.16666667 -0.00000000       0.014
   0.50000000  0.16666667 -0.00000000       0.014
  -0.33333333  0.16666667 -0.00000000       0.014
  -0.16666667  0.16666667  0.00000000       0.014
   0.00000000  0.33333333 -0.00000000       0.014
   0.16666667  0.33333333 -0.00000000       0.014
   0.33333333  0.33333333 -0.00000000       0.014
   0.50000000  0.33333333 -0.00000000       0.014
  -0.33333333  0.33333333  0.00000000       0.014
  -0.16666667  0.33333333  0.00000000       0.014
   0.00000000  0.50000000 -0.00000000       0.007
   0.16666667  0.50000000 -0.00000000       0.014
   0.33333333  0.50000000 -0.00000000       0.014
   0.50000000  0.50000000 -0.00000000       0.007
   0.00000000 -0.00000000  0.25000000       0.014
   0.16666667 -0.00000000  0.25000000       0.014
   0.33333333 -0.00000000  0.25000000       0.014
   0.50000000 -0.00000000  0.25000000       0.014
  -0.33333333  0.00000000  0.25000000       0.014
  -0.16666667  0.00000000  0.25000000       0.014
  -0.00000000  0.16666667  0.25000000       0.014
   0.16666667  0.16666667  0.25000000       0.014
   0.33333333  0.16666667  0.25000000       0.014
   0.50000000  0.16666667  0.25000000       0.014
  -0.33333333  0.16666667  0.25000000       0.014
  -0.16666667  0.16666667  0.25000000       0.014
  -0.00000000  0.33333333  0.25000000       0.014
   0.16666667  0.33333333  0.25000000       0.014
   0.33333333  0.33333333  0.25000000       0.014
   0.50000000  0.33333333  0.25000000       0.014
  -0.33333333  0.33333333  0.25000000       0.014
  -0.16666667  0.33333333  0.25000000       0.014
  -0.00000000  0.50000000  0.25000000       0.014
   0.16666667  0.50000000  0.25000000       0.014
   0.33333333  0.50000000  0.25000000       0.014
   0.50000000  0.50000000  0.25000000       0.014
  -0.33333333  0.50000000  0.25000000       0.014
  -0.16666667  0.50000000  0.25000000       0.014
   0.00000000 -0.33333333  0.25000000       0.014
   0.16666667 -0.33333333  0.25000000       0.014
   0.33333333 -0.33333333  0.25000000       0.014
   0.50000000 -0.33333333  0.25000000       0.014
  -0.33333333 -0.33333333  0.25000000       0.014
  -0.16666667 -0.33333333  0.25000000       0.014
   0.00000000 -0.16666667  0.25000000       0.014
   0.16666667 -0.16666667  0.25000000       0.014
   0.33333333 -0.16666667  0.25000000       0.014
   0.50000000 -0.16666667  0.25000000       0.014
  -0.33333333 -0.16666667  0.25000000       0.014
  -0.16666667 -0.16666667  0.25000000       0.014
   0.00000000 -0.00000000  0.50000000       0.007
   0.16666667 -0.00000000  0.50000000       0.014
   0.33333333 -0.00000000  0.50000000       0.014
   0.50000000 -0.00000000  0.50000000       0.007
  -0.00000000  0.16666667  0.50000000       0.014
   0.16666667  0.16666667  0.50000000       0.014
   0.33333333  0.16666667  0.50000000       0.014
   0.50000000  0.16666667  0.50000000       0.014
  -0.33333333  0.16666667  0.50000000       0.014
  -0.16666667  0.16666667  0.50000000       0.014
  -0.00000000  0.33333333  0.50000000       0.014
   0.16666667  0.33333333  0.50000000       0.014
   0.33333333  0.33333333  0.50000000       0.014
   0.50000000  0.33333333  0.50000000       0.014
  -0.33333333  0.33333333  0.50000000       0.014
  -0.16666667  0.33333333  0.50000000       0.014
  -0.00000000  0.50000000  0.50000000       0.007
   0.16666667  0.50000000  0.50000000       0.014
   0.33333333  0.50000000  0.50000000       0.014
   0.50000000  0.50000000  0.50000000       0.007
 
 position of ions in fractional coordinates (direct lattice) 
   0.00000000  0.00000000  0.00000000
   0.00000000  0.50000000  0.00000000
   0.50000000  0.00000000  0.00000000
   0.50000000  0.50000000  0.00000000
   0.19229174  0.81316604  0.13671630
   0.80770826  0.18683396  0.86328371
   0.19229174  0.31316598  0.13671630
   0.80770826  0.68683402  0.86328371
   0.69229174  0.81316604  0.13671630
   0.30770826  0.18683396  0.86328371
   0.69229174  0.31316598  0.13671630
   0.30770826  0.68683402  0.86328371
 
 position of ions in cartesian coordinates  (Angst):
   0.00000000  0.00000000  0.00000000
  -1.46865116  2.42604796  0.00341100
   2.83509131  0.05843646 -0.01485556
   1.36644015  2.48448441 -0.01144457
  -1.49779779  4.06293777  0.96032694
   2.77062857  1.60020186  6.04222800
  -0.02914646  1.63688952  0.95691595
   1.30197723  4.02625011  6.04563899
   1.33729351  4.12137423  0.94547138
  -0.06446274  1.54176540  6.05708356
   2.80594485  1.69532598  0.94206039
  -1.53311407  3.96781365  6.06049456
 


--------------------------------------------------------------------------------------------------------


 k-point  1 :   0.0000 0.0000 0.0000  plane waves:    5275
 k-point  2 :   0.1667-0.0000-0.0000  plane waves:    5288
 k-point  3 :   0.3333-0.0000-0.0000  plane waves:    5273
 k-point  4 :   0.5000 0.0000 0.0000  plane waves:    5274
 k-point  5 :  -0.0000 0.1667 0.0000  plane waves:    5289
 k-point  6 :   0.1667 0.1667 0.0000  plane waves:    5283
 k-point  7 :   0.3333 0.1667-0.0000  plane waves:    5262
 k-point  8 :   0.5000 0.1667-0.0000  plane waves:    5265
 k-point  9 :  -0.3333 0.1667-0.0000  plane waves:    5278
 k-point 10 :  -0.1667 0.1667 0.0000  plane waves:    5284
 k-point 11 :   0.0000 0.3333-0.0000  plane waves:    5277
 k-point 12 :   0.1667 0.3333-0.0000  plane waves:    5260
 k-point 13 :   0.3333 0.3333-0.0000  plane waves:    5262
 k-point 14 :   0.5000 0.3333-0.0000  plane waves:    5256
 k-point 15 :  -0.3333 0.3333 0.0000  plane waves:    5264
 k-point 16 :  -0.1667 0.3333 0.0000  plane waves:    5268
 k-point 17 :   0.0000 0.5000-0.0000  plane waves:    5262
 k-point 18 :   0.1667 0.5000-0.0000  plane waves:    5256
 k-point 19 :   0.3333 0.5000-0.0000  plane waves:    5243
 k-point 20 :   0.5000 0.5000-0.0000  plane waves:    5244
 k-point 21 :   0.0000-0.0000 0.2500  plane waves:    5280
 k-point 22 :   0.1667-0.0000 0.2500  plane waves:    5289
 k-point 23 :   0.3333-0.0000 0.2500  plane waves:    5270
 k-point 24 :   0.5000-0.0000 0.2500  plane waves:    5256
 k-point 25 :  -0.3333 0.0000 0.2500  plane waves:    5258
 k-point 26 :  -0.1667 0.0000 0.2500  plane waves:    5281
 k-point 27 :  -0.0000 0.1667 0.2500  plane waves:    5281
 k-point 28 :   0.1667 0.1667 0.2500  plane waves:    5282
 k-point 29 :   0.3333 0.1667 0.2500  plane waves:    5262
 k-point 30 :   0.5000 0.1667 0.2500  plane waves:    5255
 k-point 31 :  -0.3333 0.1667 0.2500  plane waves:    5275
 k-point 32 :  -0.1667 0.1667 0.2500  plane waves:    5287
 k-point 33 :  -0.0000 0.3333 0.2500  plane waves:    5263
 k-point 34 :   0.1667 0.3333 0.2500  plane waves:    5249
 k-point 35 :   0.3333 0.3333 0.2500  plane waves:    5263
 k-point 36 :   0.5000 0.3333 0.2500  plane waves:    5242
 k-point 37 :  -0.3333 0.3333 0.2500  plane waves:    5265
 k-point 38 :  -0.1667 0.3333 0.2500  plane waves:    5265
 k-point 39 :  -0.0000 0.5000 0.2500  plane waves:    5259
 k-point 40 :   0.1667 0.5000 0.2500  plane waves:    5260
 k-point 41 :   0.3333 0.5000 0.2500  plane waves:    5265
 k-point 42 :   0.5000 0.5000 0.2500  plane waves:    5254
 k-point 43 :  -0.3333 0.5000 0.2500  plane waves:    5249
 k-point 44 :  -0.1667 0.5000 0.2500  plane waves:    5253
 k-point 45 :   0.0000-0.3333 0.2500  plane waves:    5264
 k-point 46 :   0.1667-0.3333 0.2500  plane waves:    5269
 k-point 47 :   0.3333-0.3333 0.2500  plane waves:    5262
 k-point 48 :   0.5000-0.3333 0.2500  plane waves:    5255
 k-point 49 :  -0.3333-0.3333 0.2500  plane waves:    5271
 k-point 50 :  -0.1667-0.3333 0.2500  plane waves:    5257
 k-point 51 :   0.0000-0.1667 0.2500  plane waves:    5280
 k-point 52 :   0.1667-0.1667 0.2500  plane waves:    5277
 k-point 53 :   0.3333-0.1667 0.2500  plane waves:    5270
 k-point 54 :   0.5000-0.1667 0.2500  plane waves:    5257
 k-point 55 :  -0.3333-0.1667 0.2500  plane waves:    5247
 k-point 56 :  -0.1667-0.1667 0.2500  plane waves:    5271
 k-point 57 :   0.0000-0.0000 0.5000  plane waves:    5270
 k-point 58 :   0.1667-0.0000 0.5000  plane waves:    5270
 k-point 59 :   0.3333-0.0000 0.5000  plane waves:    5260
 k-point 60 :   0.5000-0.0000 0.5000  plane waves:    5246
 k-point 61 :  -0.0000 0.1667 0.5000  plane waves:    5282
 k-point 62 :   0.1667 0.1667 0.5000  plane waves:    5256
 k-point 63 :   0.3333 0.1667 0.5000  plane waves:    5253
 k-point 64 :   0.5000 0.1667 0.5000  plane waves:    5242
 k-point 65 :  -0.3333 0.1667 0.5000  plane waves:    5261
 k-point 66 :  -0.1667 0.1667 0.5000  plane waves:    5275
 k-point 67 :  -0.0000 0.3333 0.5000  plane waves:    5253
 k-point 68 :   0.1667 0.3333 0.5000  plane waves:    5255
 k-point 69 :   0.3333 0.3333 0.5000  plane waves:    5271
 k-point 70 :   0.5000 0.3333 0.5000  plane waves:    5260
 k-point 71 :  -0.3333 0.3333 0.5000  plane waves:    5263
 k-point 72 :  -0.1667 0.3333 0.5000  plane waves:    5278
 k-point 73 :  -0.0000 0.5000 0.5000  plane waves:    5252
 k-point 74 :   0.1667 0.5000 0.5000  plane waves:    5252
 k-point 75 :   0.3333 0.5000 0.5000  plane waves:    5265
 k-point 76 :   0.5000 0.5000 0.5000  plane waves:    5270

 maximum and minimum number of plane-waves per node :      1353     1289

 maximum number of plane-waves:      5289
 maximum index in each direction: 
   IXMAX=   10   IYMAX=   10   IZMAX=   13
   IXMIN=  -11   IYMIN=  -11   IZMIN=  -13

 WARNING: aliasing errors must be expected set NGX to  44 to avoid them
 WARNING: aliasing errors must be expected set NGY to  44 to avoid them
 WARNING: aliasing errors must be expected set NGZ to  54 to avoid them
 aliasing errors are usually negligible using standard VASP settings
 and one can safely disregard these warnings

 parallel 3D FFT for wavefunctions:
    minimum data exchange during FFTs selected (reduces bandwidth)
 parallel 3D FFT for charge:
    minimum data exchange during FFTs selected (reduces bandwidth)


 total amount of memory used by VASP on root node    81710. kBytes
========================================================================

   base      :      30000. kBytes
   nonl-proj :      29322. kBytes
   fftplans  :        672. kBytes
   grid      :       1662. kBytes
   one-center:         93. kBytes
   wavefun   :      19961. kBytes
 
 Broyden mixing: mesh for mixing (old mesh)
   NGX = 21   NGY = 21   NGZ = 27
  (NGX  = 64   NGY  = 64   NGZ  = 80)
  gives a total of  11907 points

 initial charge density was supplied:
 charge density of overlapping atoms calculated
 number of electron      76.0000000 magnetization       0.0000000
 keeping initial charge density in first step


--------------------------------------------------------------------------------------------------------


 Maximum index for augmentation-charges          413 (set IRDMAX)


--------------------------------------------------------------------------------------------------------


 First call to EWALD:  gamma=   0.305
 Maximum number of real-space cells 3x 3x 2
 Maximum number of reciprocal cells 3x 3x 3

 FEWALD executed in parallel
    FEWALD:  cpu time    0.00: real time    0.00


----------------------------------------- Iteration    1(   1)  ---------------------------------------


    POTLOK:  cpu time    0.02: real time    0.02
    SETDIJ:  cpu time    0.01: real time    0.01
     EDDAV:  cpu time    4.41: real time    4.41
 BZINTS: Fermi energy: 18.252778; 76.000000 electrons
         Band energy: 605.492733;  BLOECHL correction: -0.112081
       DOS:  cpu time    0.06: real time    0.06
    --------------------------------------------
      LOOP:  cpu time    4.50: real time    4.57

 eigenvalue-minimisations  : 14592
 total energy-change (2. order) : 0.1115102E+04  (-0.3284632E+04)
 number of electron      76.0000000 magnetization      -0.0000000
 augmentation part       76.0000000 magnetization      -0.0000000

 Free energy of the ion-electron system (eV)
  ---------------------------------------------------
  alpha Z        PSCENC =       194.64266676
  Ewald energy   TEWEN  =      -823.04442136
  -1/2 Hartree   DENC   =     -4203.91777435
  -exchange  EXHF       =         0.00000000
  -V(xc)+E(xc)   XCENC  =       185.07943381
  PAW double counting   =      4385.75833043    -4339.47960987
  entropy T*S    EENTRO =         0.00000000
  eigenvalues    EBANDS =       605.49273315
  atomic energy  EATOM  =      5110.57042958
  ---------------------------------------------------
  free energy    TOTEN  =      1115.10178816 eV

  energy without entropy =     1115.10178816  energy(sigma->0) =     1115.10178816


--------------------------------------------------------------------------------------------------------




----------------------------------------- Iteration    1(   2)  ---------------------------------------


     EDDAV:  cpu time    4.49: real time    4.49
 BZINTS: Fermi energy:  5.328116; 76.000000 electrons
         Band energy:-328.406928;  BLOECHL correction: -0.176347
       DOS:  cpu time    0.06: real time    0.06
    --------------------------------------------
      LOOP:  cpu time    4.55: real time    4.66

 eigenvalue-minimisations  : 14952
 total energy-change (2. order) :-0.9338997E+03  (-0.8897042E+03)
 number of electron      76.0000000 magnetization      -0.0000000
 augmentation part       76.0000000 magnetization      -0.0000000

 Free energy of the ion-electron system (eV)
  ---------------------------------------------------
  alpha Z        PSCENC =       194.64266676
  Ewald energy   TEWEN  =      -823.04442136
  -1/2 Hartree   DENC   =     -4203.91777435
  -exchange  EXHF       =         0.00000000
  -V(xc)+E(xc)   XCENC  =       185.07943381
  PAW double counting   =      4385.75833043    -4339.47960987
  entropy T*S    EENTRO =         0.00000000
  eigenvalues    EBANDS =      -328.40692801
  atomic energy  EATOM  =      5110.57042958
  ---------------------------------------------------
  free energy    TOTEN  =       181.20212699 eV

  energy without entropy =      181.20212699  energy(sigma->0) =      181.20212699


--------------------------------------------------------------------------------------------------------




----------------------------------------- Iteration    1(   3)  ---------------------------------------


     EDDAV:  cpu time    6.39: real time    6.40
 BZINTS: Fermi energy:  2.974936; 76.000000 electrons
         Band energy:-608.570116;  BLOECHL correction: -0.001544
       DOS:  cpu time    0.05: real time    0.05
    --------------------------------------------
      LOOP:  cpu time    6.44: real time    6.56

 eigenvalue-minimisations  : 23728
 total energy-change (2. order) :-0.2801632E+03  (-0.2663037E+03)
 number of electron      76.0000000 magnetization      -0.0000000
 augmentation part       76.0000000 magnetization      -0.0000000

 Free energy of the ion-electron system (eV)
  ---------------------------------------------------
  alpha Z        PSCENC =       194.64266676
  Ewald energy   TEWEN  =      -823.04442136
  -1/2 Hartree   DENC   =     -4203.91777435
  -exchange  EXHF       =         0.00000000
  -V(xc)+E(xc)   XCENC  =       185.07943381
  PAW double counting   =      4385.75833043    -4339.47960987
  entropy T*S    EENTRO =         0.00000000
  eigenvalues    EBANDS =      -608.57011585
  atomic energy  EATOM  =      5110.57042958
  ---------------------------------------------------
  free energy    TOTEN  =       -98.96106085 eV

  energy without entropy =      -98.96106085  energy(sigma->0) =      -98.96106085


--------------------------------------------------------------------------------------------------------




----------------------------------------- Iteration    1(   4)  ---------------------------------------


     EDDAV:  cpu time    6.33: real time    6.33
 BZINTS: Fermi energy:  1.633469; 76.000000 electrons
         Band energy:-638.470933;  BLOECHL correction:  0.000000
       DOS:  cpu time    0.01: real time    0.01
    --------------------------------------------
      LOOP:  cpu time    6.34: real time    6.45

 eigenvalue-minimisations  : 23648
 total energy-change (2. order) :-0.2990082E+02  (-0.2939534E+02)
 number of electron      76.0000000 magnetization      -0.0000000
 augmentation part       76.0000000 magnetization      -0.0000000

 Free energy of the ion-electron system (eV)
  ---------------------------------------------------
  alpha Z        PSCENC =       194.64266676
  Ewald energy   TEWEN  =      -823.04442136
  -1/2 Hartree   DENC   =     -4203.91777435
  -exchange  EXHF       =         0.00000000
  -V(xc)+E(xc)   XCENC  =       185.07943381
  PAW double counting   =      4385.75833043    -4339.47960987
  entropy T*S    EENTRO =         0.00000000
  eigenvalues    EBANDS =      -638.47093277
  atomic energy  EATOM  =      5110.57042958
  ---------------------------------------------------
  free energy    TOTEN  =      -128.86187777 eV

  energy without entropy =     -128.86187777  energy(sigma->0) =     -128.86187777


--------------------------------------------------------------------------------------------------------




----------------------------------------- Iteration    1(   5)  ---------------------------------------


     EDDAV:  cpu time    6.13: real time    6.13
 BZINTS: Fermi energy:  1.611653; 76.000000 electrons
         Band energy:-639.242444;  BLOECHL correction:  0.000000
       DOS:  cpu time    0.01: real time    0.01
    CHARGE:  cpu time    0.21: real time    0.21
    MIXING:  cpu time    0.00: real time    0.00
    --------------------------------------------
      LOOP:  cpu time    6.35: real time    6.46

 eigenvalue-minimisations  : 22840
 total energy-change (2. order) :-0.7715113E+00  (-0.7622621E+00)
 number of electron      76.0000120 magnetization       0.0000000
 augmentation part       14.9569505 magnetization       0.0000000

 Broyden mixing:
  rms(total) = 0.56645E+01    rms(broyden)= 0.56642E+01
  rms(prec ) = 0.74992E+01
  weight for this iteration     100.00

 Free energy of the ion-electron system (eV)
  ---------------------------------------------------
  alpha Z        PSCENC =       194.64266676
  Ewald energy   TEWEN  =      -823.04442136
  -1/2 Hartree   DENC   =     -4203.91777435
  -exchange  EXHF       =         0.00000000
  -V(xc)+E(xc)   XCENC  =       185.07943381
  PAW double counting   =      4385.75833043    -4339.47960987
  entropy T*S    EENTRO =         0.00000000
  eigenvalues    EBANDS =      -639.24244410
  atomic energy  EATOM  =      5110.57042958
  ---------------------------------------------------
  free energy    TOTEN  =      -129.63338909 eV

  energy without entropy =     -129.63338909  energy(sigma->0) =     -129.63338909


--------------------------------------------------------------------------------------------------------




----------------------------------------- Iteration    1(   6)  ---------------------------------------


    POTLOK:  cpu time    0.02: real time    0.02
    SETDIJ:  cpu time    0.00: real time    0.01
     EDDAV:  cpu time    6.26: real time    6.27
 BZINTS: Fermi energy: -2.067679; 76.000000 electrons
         Band energy:-632.979967;  BLOECHL correction: -0.043831
       DOS:  cpu time    0.06: real time    0.06
    CHARGE:  cpu time    0.20: real time    0.21
    MIXING:  cpu time    0.00: real time    0.00
    --------------------------------------------
      LOOP:  cpu time    6.56: real time    6.69

 eigenvalue-minimisations  : 23368
 total energy-change (2. order) : 0.1239676E+01  (-0.3605102E+02)
 number of electron      75.9999939 magnetization       0.0000000
 augmentation part       24.4274815 magnetization       0.0000000

 Broyden mixing:
  rms(total) = 0.88784E+01    rms(broyden)= 0.88778E+01
  rms(prec ) = 0.12330E+02
  weight for this iteration     100.00

 eigenvalues of (default mixing * dielectric matrix)
  average eigenvalue GAMMA=   0.2325
  0.2325

 Free energy of the ion-electron system (eV)
  ---------------------------------------------------
  alpha Z        PSCENC =       194.64266676
  Ewald energy   TEWEN  =      -823.04442136
  -1/2 Hartree   DENC   =     -4226.19429885
  -exchange  EXHF       =         0.00000000
  -V(xc)+E(xc)   XCENC  =       192.46099950
  PAW double counting   =      5214.47581094    -5158.32493256
  entropy T*S    EENTRO =         0.00000000
  eigenvalues    EBANDS =      -632.97996690
  atomic energy  EATOM  =      5110.57042958
  ---------------------------------------------------
  free energy    TOTEN  =      -128.39371289 eV

  energy without entropy =     -128.39371289  energy(sigma->0) =     -128.39371289


--------------------------------------------------------------------------------------------------------




----------------------------------------- Iteration    1(   7)  ---------------------------------------


    POTLOK:  cpu time    0.02: real time    0.02
    SETDIJ:  cpu time    0.00: real time    0.01
     EDDAV:  cpu time    7.13: real time    7.13
 BZINTS: Fermi energy:  0.068796; 76.000000 electrons
         Band energy:-575.025547;  BLOECHL correction:  0.000000
       DOS:  cpu time    0.01: real time    0.01
    CHARGE:  cpu time    0.20: real time    0.20
    MIXING:  cpu time    0.00: real time    0.00
    --------------------------------------------
      LOOP:  cpu time    7.36: real time    7.46

 eigenvalue-minimisations  : 27184
 total energy-change (2. order) : 0.2766382E+02  (-0.2582175E+02)
 number of electron      76.0000081 magnetization      -0.0000000
 augmentation part       15.8062557 magnetization      -0.0000000

 Broyden mixing:
  rms(total) = 0.23890E+01    rms(broyden)= 0.23881E+01
  rms(prec ) = 0.30232E+01
  weight for this iteration     100.00

 eigenvalues of (default mixing * dielectric matrix)
  average eigenvalue GAMMA=   0.6592
  1.0436  0.2748

 Free energy of the ion-electron system (eV)
  ---------------------------------------------------
  alpha Z        PSCENC =       194.64266676
  Ewald energy   TEWEN  =      -823.04442136
  -1/2 Hartree   DENC   =     -4236.88816591
  -exchange  EXHF       =         0.00000000
  -V(xc)+E(xc)   XCENC  =       185.33499409
  PAW double counting   =      5489.80024997    -5446.12010244
  entropy T*S    EENTRO =         0.00000000
  eigenvalues    EBANDS =      -575.02554750
  atomic energy  EATOM  =      5110.57042958
  ---------------------------------------------------
  free energy    TOTEN  =      -100.72989681 eV

  energy without entropy =     -100.72989681  energy(sigma->0) =     -100.72989681


--------------------------------------------------------------------------------------------------------




----------------------------------------- Iteration    1(   8)  ---------------------------------------


    POTLOK:  cpu time    0.02: real time    0.02
    SETDIJ:  cpu time    0.00: real time    0.01
     EDDAV:  cpu time    6.26: real time    6.26
 BZINTS: Fermi energy: -1.274139; 76.000000 electrons
         Band energy:-605.397912;  BLOECHL correction:  0.000000
       DOS:  cpu time    0.01: real time    0.01
    CHARGE:  cpu time    0.20: real time    0.20
    MIXING:  cpu time    0.00: real time    0.00
    --------------------------------------------
      LOOP:  cpu time    6.50: real time    6.63

 eigenvalue-minimisations  : 23440
 total energy-change (2. order) : 0.4730158E+00  (-0.2573517E+01)
 number of electron      76.0000075 magnetization       0.0000000
 augmentation part       16.9458520 magnetization       0.0000000

 Broyden mixing:
  rms(total) = 0.10919E+01    rms(broyden)= 0.10918E+01
  rms(prec ) = 0.13914E+01
  weight for this iteration     100.00

 eigenvalues of (default mixing * dielectric matrix)
  average eigenvalue GAMMA=   0.8561
  1.6250  0.2901  0.6532

 Free energy of the ion-electron system (eV)
  ---------------------------------------------------
  alpha Z        PSCENC =       194.64266676
  Ewald energy   TEWEN  =      -823.04442136
  -1/2 Hartree   DENC   =     -4207.57285492
  -exchange  EXHF       =         0.00000000
  -V(xc)+E(xc)   XCENC  =       188.00417474
  PAW double counting   =      6070.56753786    -6028.02650184
  entropy T*S    EENTRO =         0.00000000
  eigenvalues    EBANDS =      -605.39791182
  atomic energy  EATOM  =      5110.57042958
  ---------------------------------------------------
  free energy    TOTEN  =      -100.25688100 eV

  energy without entropy =     -100.25688100  energy(sigma->0) =     -100.25688100


--------------------------------------------------------------------------------------------------------




----------------------------------------- Iteration    1(   9)  ---------------------------------------


    POTLOK:  cpu time    0.02: real time    0.02
    SETDIJ:  cpu time    0.00: real time    0.01
     EDDAV:  cpu time    7.07: real time    7.08
 BZINTS: Fermi energy: -1.676179; 76.000000 electrons
         Band energy:-600.250038;  BLOECHL correction:  0.000000
       DOS:  cpu time    0.01: real time    0.01
    CHARGE:  cpu time    0.20: real time    0.20
    MIXING:  cpu time    0.00: real time    0.00
    --------------------------------------------
      LOOP:  cpu time    7.31: real time    7.43

 eigenvalue-minimisations  : 26904
 total energy-change (2. order) : 0.4546430E+00  (-0.3492873E+00)
 number of electron      76.0000063 magnetization      -0.0000000
 augmentation part       17.5424494 magnetization      -0.0000000

 Broyden mixing:
  rms(total) = 0.26938E+00    rms(broyden)= 0.26927E+00
  rms(prec ) = 0.33674E+00
  weight for this iteration     100.00

 eigenvalues of (default mixing * dielectric matrix)
  average eigenvalue GAMMA=   0.9519
  1.9641  0.9427  0.2939  0.6071

 Free energy of the ion-electron system (eV)
  ---------------------------------------------------
  alpha Z        PSCENC =       194.64266676
  Ewald energy   TEWEN  =      -823.04442136
  -1/2 Hartree   DENC   =     -4212.73376634
  -exchange  EXHF       =         0.00000000
  -V(xc)+E(xc)   XCENC  =       189.51451350
  PAW double counting   =      6425.78866788    -6384.29028964
  entropy T*S    EENTRO =         0.00000000
  eigenvalues    EBANDS =      -600.25003834
  atomic energy  EATOM  =      5110.57042958
  ---------------------------------------------------
  free energy    TOTEN  =       -99.80223797 eV

  energy without entropy =      -99.80223797  energy(sigma->0) =      -99.80223797


--------------------------------------------------------------------------------------------------------




----------------------------------------- Iteration    1(  10)  ---------------------------------------


    POTLOK:  cpu time    0.02: real time    0.02
    SETDIJ:  cpu time    0.00: real time    0.01
     EDDAV:  cpu time    5.76: real time    5.76
 BZINTS: Fermi energy: -1.583576; 76.000000 electrons
         Band energy:-594.070954;  BLOECHL correction:  0.000000
       DOS:  cpu time    0.01: real time    0.01
    CHARGE:  cpu time    0.20: real time    0.20
    MIXING:  cpu time    0.00: real time    0.00
    --------------------------------------------
      LOOP:  cpu time    5.99: real time    6.10

 eigenvalue-minimisations  : 21088
 total energy-change (2. order) :-0.8346120E-02  (-0.3815775E-01)
 number of electron      76.0000063 magnetization      -0.0000000
 augmentation part       17.4283509 magnetization      -0.0000000

 Broyden mixing:
  rms(total) = 0.16544E+00    rms(broyden)= 0.16543E+00
  rms(prec ) = 0.19700E+00
  weight for this iteration     100.00

 eigenvalues of (default mixing * dielectric matrix)
  average eigenvalue GAMMA=   0.9393
  2.0195  0.2938  0.8676  0.8676  0.6480

 Free energy of the ion-electron system (eV)
  ---------------------------------------------------
  alpha Z        PSCENC =       194.64266676
  Ewald energy   TEWEN  =      -823.04442136
  -1/2 Hartree   DENC   =     -4218.11555586
  -exchange  EXHF       =         0.00000000
  -V(xc)+E(xc)   XCENC  =       190.00249251
  PAW double counting   =      6511.07306014    -6470.86830157
  entropy T*S    EENTRO =         0.00000000
  eigenvalues    EBANDS =      -594.07095428
  atomic energy  EATOM  =      5110.57042958
  ---------------------------------------------------
  free energy    TOTEN  =       -99.81058409 eV

  energy without entropy =      -99.81058409  energy(sigma->0) =      -99.81058409


--------------------------------------------------------------------------------------------------------




----------------------------------------- Iteration    1(  11)  ---------------------------------------


    POTLOK:  cpu time    0.02: real time    0.02
    SETDIJ:  cpu time    0.00: real time    0.01
     EDDAV:  cpu time    6.31: real time    6.32
 BZINTS: Fermi energy: -1.542447; 76.000000 electrons
         Band energy:-592.551179;  BLOECHL correction:  0.000000
       DOS:  cpu time    0.01: real time    0.01
    CHARGE:  cpu time    0.20: real time    0.20
    MIXING:  cpu time    0.00: real time    0.00
    --------------------------------------------
      LOOP:  cpu time    6.55: real time    6.80

 eigenvalue-minimisations  : 23576
 total energy-change (2. order) : 0.5631801E-02  (-0.2282653E-02)
 number of electron      76.0000063 magnetization       0.0000000
 augmentation part       17.4025394 magnetization       0.0000000

 Broyden mixing:
  rms(total) = 0.66322E-01    rms(broyden)= 0.66320E-01
  rms(prec ) = 0.87124E-01
  weight for this iteration     100.00

 eigenvalues of (default mixing * dielectric matrix)
  average eigenvalue GAMMA=   1.0144
  2.2331  0.2939  1.1988  1.0242  0.6683  0.6683

 Free energy of the ion-electron system (eV)
  ---------------------------------------------------
  alpha Z        PSCENC =       194.64266676
  Ewald energy   TEWEN  =      -823.04442136
  -1/2 Hartree   DENC   =     -4219.08996843
  -exchange  EXHF       =         0.00000000
  -V(xc)+E(xc)   XCENC  =       189.77823581
  PAW double counting   =      6558.85657480    -6518.96728997
  entropy T*S    EENTRO =         0.00000000
  eigenvalues    EBANDS =      -592.55117947
  atomic energy  EATOM  =      5110.57042958
  ---------------------------------------------------
  free energy    TOTEN  =       -99.80495229 eV

  energy without entropy =      -99.80495229  energy(sigma->0) =      -99.80495229


--------------------------------------------------------------------------------------------------------




----------------------------------------- Iteration    1(  12)  ---------------------------------------


    POTLOK:  cpu time    0.02: real time    0.02
    SETDIJ:  cpu time    0.01: real time    0.01
     EDDAV:  cpu time    6.66: real time    6.67
 BZINTS: Fermi energy: -1.498851; 76.000000 electrons
         Band energy:-590.126188;  BLOECHL correction:  0.000000
       DOS:  cpu time    0.01: real time    0.01
    CHARGE:  cpu time    0.20: real time    0.20
    MIXING:  cpu time    0.00: real time    0.00
    --------------------------------------------
      LOOP:  cpu time    6.90: real time    7.00

 eigenvalue-minimisations  : 25080
 total energy-change (2. order) : 0.2383619E-02  (-0.8113018E-03)
 number of electron      76.0000064 magnetization       0.0000000
 augmentation part       17.3746912 magnetization       0.0000000

 Broyden mixing:
  rms(total) = 0.29006E-01    rms(broyden)= 0.29004E-01
  rms(prec ) = 0.33325E-01
  weight for this iteration     100.00

 eigenvalues of (default mixing * dielectric matrix)
  average eigenvalue GAMMA=   1.0807
  2.0286  2.0286  0.2938  0.9573  0.9573  0.6197  0.6795

 Free energy of the ion-electron system (eV)
  ---------------------------------------------------
  alpha Z        PSCENC =       194.64266676
  Ewald energy   TEWEN  =      -823.04442136
  -1/2 Hartree   DENC   =     -4221.10514403
  -exchange  EXHF       =         0.00000000
  -V(xc)+E(xc)   XCENC  =       189.82464676
  PAW double counting   =      6587.85039098    -6548.41494912
  entropy T*S    EENTRO =         0.00000000
  eigenvalues    EBANDS =      -590.12618824
  atomic energy  EATOM  =      5110.57042958
  ---------------------------------------------------
  free energy    TOTEN  =       -99.80256867 eV

  energy without entropy =      -99.80256867  energy(sigma->0) =      -99.80256867


--------------------------------------------------------------------------------------------------------




----------------------------------------- Iteration    1(  13)  ---------------------------------------


    POTLOK:  cpu time    0.02: real time    0.02
    SETDIJ:  cpu time    0.01: real time    0.01
     EDDAV:  cpu time    6.56: real time    6.56
 BZINTS: Fermi energy: -1.478493; 76.000000 electrons
         Band energy:-589.004265;  BLOECHL correction:  0.000000
       DOS:  cpu time    0.01: real time    0.01
    CHARGE:  cpu time    0.20: real time    0.20
    MIXING:  cpu time    0.00: real time    0.00
    --------------------------------------------
      LOOP:  cpu time    6.79: real time    6.94

 eigenvalue-minimisations  : 24568
 total energy-change (2. order) :-0.4666935E-04  (-0.3716270E-03)
 number of electron      76.0000064 magnetization       0.0000000
 augmentation part       17.3525195 magnetization       0.0000000

 Broyden mixing:
  rms(total) = 0.20147E-01    rms(broyden)= 0.20144E-01
  rms(prec ) = 0.30443E-01
  weight for this iteration     100.00

 eigenvalues of (default mixing * dielectric matrix)
  average eigenvalue GAMMA=   1.0705
  2.2781  1.9735  0.2938  0.9466  0.9466  0.8408  0.6685  0.6161

 Free energy of the ion-electron system (eV)
  ---------------------------------------------------
  alpha Z        PSCENC =       194.64266676
  Ewald energy   TEWEN  =      -823.04442136
  -1/2 Hartree   DENC   =     -4222.17526645
  -exchange  EXHF       =         0.00000000
  -V(xc)+E(xc)   XCENC  =       189.76562760
  PAW double counting   =      6581.96029350    -6542.51767999
  entropy T*S    EENTRO =         0.00000000
  eigenvalues    EBANDS =      -589.00426498
  atomic energy  EATOM  =      5110.57042958
  ---------------------------------------------------
  free energy    TOTEN  =       -99.80261534 eV

  energy without entropy =      -99.80261534  energy(sigma->0) =      -99.80261534


--------------------------------------------------------------------------------------------------------




----------------------------------------- Iteration    1(  14)  ---------------------------------------


    POTLOK:  cpu time    0.02: real time    0.02
    SETDIJ:  cpu time    0.00: real time    0.01
     EDDAV:  cpu time    6.72: real time    6.73
 BZINTS: Fermi energy: -1.472081; 76.000000 electrons
         Band energy:-588.219880;  BLOECHL correction:  0.000000
       DOS:  cpu time    0.01: real time    0.01
    CHARGE:  cpu time    0.20: real time    0.20
    MIXING:  cpu time    0.00: real time    0.00
    --------------------------------------------
      LOOP:  cpu time    6.96: real time    7.16

 eigenvalue-minimisations  : 25216
 total energy-change (2. order) : 0.5279286E-03  (-0.1792496E-03)
 number of electron      76.0000064 magnetization       0.0000000
 augmentation part       17.3671771 magnetization       0.0000000

 Broyden mixing:
  rms(total) = 0.12590E-01    rms(broyden)= 0.12589E-01
  rms(prec ) = 0.13704E-01
  weight for this iteration     100.00

 eigenvalues of (default mixing * dielectric matrix)
  average eigenvalue GAMMA=   1.1063
  2.2852  2.2852  1.1623  1.1623  0.2938  0.8140  0.6722  0.6722  0.6092

 Free energy of the ion-electron system (eV)
  ---------------------------------------------------
  alpha Z        PSCENC =       194.64266676
  Ewald energy   TEWEN  =      -823.04442136
  -1/2 Hartree   DENC   =     -4223.00115513
  -exchange  EXHF       =         0.00000000
  -V(xc)+E(xc)   XCENC  =       189.82299121
  PAW double counting   =      6585.30379178    -6545.87651039
  entropy T*S    EENTRO =         0.00000000
  eigenvalues    EBANDS =      -588.21987985
  atomic energy  EATOM  =      5110.57042958
  ---------------------------------------------------
  free energy    TOTEN  =       -99.80208741 eV

  energy without entropy =      -99.80208741  energy(sigma->0) =      -99.80208741


--------------------------------------------------------------------------------------------------------




----------------------------------------- Iteration    1(  15)  ---------------------------------------


    POTLOK:  cpu time    0.02: real time    0.02
    SETDIJ:  cpu time    0.01: real time    0.01
     EDDAV:  cpu time    3.83: real time    3.83
 BZINTS: Fermi energy: -1.464115; 76.000000 electrons
         Band energy:-587.700663;  BLOECHL correction:  0.000000
       DOS:  cpu time    0.01: real time    0.01
    --------------------------------------------
      LOOP:  cpu time    3.86: real time    4.05

 eigenvalue-minimisations  : 11432
 total energy-change (2. order) : 0.1179084E-04  (-0.2653842E-04)
 number of electron      76.0000064 magnetization       0.0000000
 augmentation part       17.3671771 magnetization       0.0000000

 Free energy of the ion-electron system (eV)
  ---------------------------------------------------
  alpha Z        PSCENC =       194.64266676
  Ewald energy   TEWEN  =      -823.04442136
  -1/2 Hartree   DENC   =     -4223.56381967
  -exchange  EXHF       =         0.00000000
  -V(xc)+E(xc)   XCENC  =       189.84915115
  PAW double counting   =      6581.97771413    -6542.53313291
  entropy T*S    EENTRO =         0.00000000
  eigenvalues    EBANDS =      -587.70066330
  atomic energy  EATOM  =      5110.57042958
  ---------------------------------------------------
  free energy    TOTEN  =       -99.80207562 eV

  energy without entropy =      -99.80207562  energy(sigma->0) =      -99.80207562


--------------------------------------------------------------------------------------------------------




 average (electrostatic) potential at core
  the test charge radii are     1.0210  0.7215
  (the norm of the test charge is              1.0000)
       1 -51.5609       2 -51.5609       3 -51.5609       4 -51.5609       5 -76.2149
       6 -76.2149       7 -76.2149       8 -76.2149       9 -76.2149      10 -76.2149
      11 -76.2149      12 -76.2149
 
 
 
 E-fermi :  -1.4641     XC(G=0):  -7.8829     alpha+bet : -6.5234


 spin component 1

 k-point   1 :       0.0000    0.0000    0.0000
  band No.  band energies     occupation 
      1     -20.7164      1.00000
      2     -19.1607      1.00000
      3     -19.1446      1.00000
      4     -19.1258      1.00000
      5     -18.9229      1.00000
      6     -18.9059      1.00000
      7     -18.8941      1.00000
      8     -18.5611      1.00000
      9      -8.0393      1.00000
     10      -7.9448      1.00000
     11      -7.8163      1.00000
     12      -6.8929      1.00000
     13      -6.8454      1.00000
     14      -6.7627      1.00000
     15      -6.1601      1.00000
     16      -5.9533      1.00000
     17      -5.8914      1.00000
     18      -5.8789      1.00000
     19      -5.8778      1.00000
     20      -5.8303      1.00000
     21      -5.0480      1.00000
     22      -4.8770      1.00000
     23      -4.8312      1.00000
     24      -4.0560      1.00000
     25      -4.0275      1.00000
     26      -3.9891      1.00000
     27      -3.3440      1.00000
     28      -3.2943      1.00000
     29      -3.2261      1.00000
     30      -3.0787      1.00000
     31      -2.9879      1.00000
     32      -2.8862      1.00000
     33      -2.7648      1.00000
     34      -2.5829      1.00000
     35      -2.5708      1.00000
     36      -2.5150      1.00000
     37      -2.2103      1.00000
     38      -2.1460      1.00000
     39      -0.4571      0.00000
     40      -0.3570      0.00000
     41      -0.0640      0.00000
     42       0.1423      0.00000
     43       0.3638      0.00000
     44       0.6124      0.00000
     45       1.4417      0.00000
     46       1.4637      0.00000
     47       1.5620      0.00000
     48       1.9043      0.00000

 k-point   2 :       0.1667   -0.0000   -0.0000
  band No.  band energies     occupation 
      1     -20.6263      1.00000
      2     -19.2764      1.00000
      3     -19.1651      1.00000
      4     -19.1365      1.00000
      5     -18.9203      1.00000
      6     -18.8849      1.00000
      7     -18.8721      1.00000
      8     -18.5813      1.00000
      9      -7.8987      1.00000
     10      -7.7627      1.00000
     11      -7.6754      1.00000
     12      -6.8374      1.00000
     13      -6.7923      1.00000
     14      -6.7780      1.00000
     15      -6.4480      1.00000
     16      -6.1986      1.00000
     17      -6.0406      1.00000
     18      -5.9381      1.00000
     19      -5.6081      1.00000
     20      -5.5829      1.00000
     21      -5.0676      1.00000
     22      -4.8448      1.00000
     23      -4.7928      1.00000
     24      -4.3483      1.00000
     25      -4.2245      1.00000
     26      -4.1702      1.00000
     27      -3.4620      1.00000
     28      -3.4053      1.00000
     29      -3.2479      1.00000
     30      -3.2405      1.00000
     31      -3.1645      1.00000
     32      -2.8137      1.00000
     33      -2.7491      1.00000
     34      -2.4903      1.00000
     35      -2.4593      1.00000
     36      -2.4069      1.00000
     37      -2.0103      1.00000
     38      -1.9228      1.00000
     39      -0.3356      0.00000
     40      -0.1977      0.00000
     41      -0.0660      0.00000
     42       0.2667      0.00000
     43       0.3583      0.00000
     44       0.6553      0.00000
     45       1.3249      0.00000
     46       1.3589      0.00000
     47       1.4420      0.00000
     48       1.8205      0.00000

 k-point   3 :       0.3333   -0.0000   -0.0000
  band No.  band energies     occupation 
      1     -20.3716      1.00000
      2     -19.5991      1.00000
      3     -19.1736      1.00000
      4     -19.1558      1.00000
      5     -18.9153      1.00000
      6     -18.8684      1.00000
      7     -18.8020      1.00000
      8     -18.6375      1.00000
      9      -7.5302      1.00000
     10      -7.4369      1.00000
     11      -7.3489      1.00000
     12      -6.8384      1.00000
     13      -6.6690      1.00000
     14      -6.6541      1.00000
     15      -6.5307      1.00000
     16      -6.5206      1.00000
     17      -6.1693      1.00000
     18      -5.9198      1.00000
     19      -5.5131      1.00000
     20      -5.4942      1.00000
     21      -5.1555      1.00000
     22      -5.0929      1.00000
     23      -4.9654      1.00000
     24      -4.6145      1.00000
     25      -4.5432      1.00000
     26      -4.4108      1.00000
     27      -4.2950      1.00000
     28      -3.4961      1.00000
     29      -3.4944      1.00000
     30      -3.2264      1.00000
     31      -2.9163      1.00000
     32      -2.7366      1.00000
     33      -2.5613      1.00000
     34      -2.3644      1.00000
     35      -2.3435      1.00000
     36      -2.1532      1.00000
     37      -1.7131      1.00000
     38      -1.6120      1.00000
     39      -0.0919      0.00000
     40      -0.0585      0.00000
     41       0.1406      0.00000
     42       0.3533      0.00000
     43       0.5228      0.00000
     44       0.6791      0.00000
     45       1.0517      0.00000
     46       1.1437      0.00000
     47       1.1577      0.00000
     48       1.6135      0.00000

 k-point   4 :       0.5000    0.0000    0.0000
  band No.  band energies     occupation 
      1     -20.0254      1.00000
      2     -19.9766      1.00000
      3     -19.1778      1.00000
      4     -19.1647      1.00000
      5     -18.9129      1.00000
      6     -18.8609      1.00000
      7     -18.7201      1.00000
      8     -18.7146      1.00000
      9      -7.3610      1.00000
     10      -7.2177      1.00000
     11      -7.1956      1.00000
     12      -6.7748      1.00000
     13      -6.7442      1.00000
     14      -6.5943      1.00000
     15      -6.5761      1.00000
     16      -6.3621      1.00000
     17      -5.9222      1.00000
     18      -5.8514      1.00000
     19      -5.7548      1.00000
     20      -5.5677      1.00000
     21      -5.5399      1.00000
     22      -5.1914      1.00000
     23      -5.0770      1.00000
     24      -4.8524      1.00000
     25      -4.6985      1.00000
     26      -4.5139      1.00000
     27      -4.4684      1.00000
     28      -3.6140      1.00000
     29      -3.5317      1.00000
     30      -3.1956      1.00000
     31      -2.7853      1.00000
     32      -2.7342      1.00000
     33      -2.3976      1.00000
     34      -2.3234      1.00000
     35      -2.2350      1.00000
     36      -2.0471      1.00000
     37      -1.5895      1.00000
     38      -1.4857      1.00000
     39      -0.1128      0.00000
     40       0.1043      0.00000
     41       0.3387      0.00000
     42       0.3741      0.00000
     43       0.6003      0.00000
     44       0.7355      0.00000
     45       0.9074      0.00000
     46       0.9673      0.00000
     47       0.9920      0.00000
     48       1.4734      0.00000

 k-point   5 :      -0.0000    0.1667    0.0000
  band No.  band energies     occupation 
      1     -20.6261      1.00000
      2     -19.2751      1.00000
      3     -19.1527      1.00000
      4     -19.1517      1.00000
      5     -18.9027      1.00000
      6     -18.9006      1.00000
      7     -18.8726      1.00000
      8     -18.5814      1.00000
      9      -7.8760      1.00000
     10      -7.7996      1.00000
     11      -7.6363      1.00000
     12      -6.8961      1.00000
     13      -6.7916      1.00000
     14      -6.7065      1.00000
     15      -6.3753      1.00000
     16      -6.3215      1.00000
     17      -6.0580      1.00000
     18      -6.0326      1.00000
     19      -5.5476      1.00000
     20      -5.5255      1.00000
     21      -5.0941      1.00000
     22      -4.8230      1.00000
     23      -4.8076      1.00000
     24      -4.3168      1.00000
     25      -4.3124      1.00000
     26      -4.0707      1.00000
     27      -3.4891      1.00000
     28      -3.4045      1.00000
     29      -3.3608      1.00000
     30      -3.1919      1.00000
     31      -3.1465      1.00000
     32      -2.8196      1.00000
     33      -2.5643      1.00000
     34      -2.5243      1.00000
     35      -2.3834      1.00000
     36      -2.2675      1.00000
     37      -2.1581      1.00000
     38      -2.0900      1.00000
     39      -0.3653      0.00000
     40      -0.2674      0.00000
     41       0.0672      0.00000
     42       0.1933      0.00000
     43       0.4182      0.00000
     44       0.6098      0.00000
     45       1.3598      0.00000
     46       1.4063      0.00000
     47       1.4817      0.00000
     48       1.7445      0.00000

 k-point   6 :       0.1667    0.1667    0.0000
  band No.  band energies     occupation 
      1     -20.4533      1.00000
      2     -19.3858      1.00000
      3     -19.3847      1.00000
      4     -19.0499      1.00000
      5     -18.9239      1.00000
      6     -18.8462      1.00000
      7     -18.8450      1.00000
      8     -18.6197      1.00000
      9      -7.6429      1.00000
     10      -7.4981      1.00000
     11      -7.3817      1.00000
     12      -6.9331      1.00000
     13      -6.6624      1.00000
     14      -6.6394      1.00000
     15      -6.5969      1.00000
     16      -6.3791      1.00000
     17      -6.3313      1.00000
     18      -5.8252      1.00000
     19      -5.7181      1.00000
     20      -5.3020      1.00000
     21      -5.1146      1.00000
     22      -4.9470      1.00000
     23      -4.9297      1.00000
     24      -4.5365      1.00000
     25      -4.5138      1.00000
     26      -4.3639      1.00000
     27      -3.8661      1.00000
     28      -3.7616      1.00000
     29      -3.5979      1.00000
     30      -3.0619      1.00000
     31      -3.0550      1.00000
     32      -2.5685      1.00000
     33      -2.5546      1.00000
     34      -2.4259      1.00000
     35      -2.3637      1.00000
     36      -2.1497      1.00000
     37      -1.8679      1.00000
     38      -1.7838      1.00000
     39      -0.2059      0.00000
     40      -0.0673      0.00000
     41       0.0793      0.00000
     42       0.3817      0.00000
     43       0.4546      0.00000
     44       0.6813      0.00000
     45       1.1777      0.00000
     46       1.2128      0.00000
     47       1.2909      0.00000
     48       1.5879      0.00000

 k-point   7 :       0.3333    0.1667   -0.0000
  band No.  band energies     occupation 
      1     -20.1409      1.00000
      2     -19.7509      1.00000
      3     -19.4488      1.00000
      4     -18.9993      1.00000
      5     -18.9289      1.00000
      6     -18.8267      1.00000
      7     -18.7694      1.00000
      8     -18.6878      1.00000
      9      -7.3096      1.00000
     10      -7.2857      1.00000
     11      -7.1284      1.00000
     12      -6.8580      1.00000
     13      -6.7164      1.00000
     14      -6.5547      1.00000
     15      -6.5422      1.00000
     16      -6.3713      1.00000
     17      -6.1882      1.00000
     18      -5.8012      1.00000
     19      -5.7638      1.00000
     20      -5.7171      1.00000
     21      -5.3249      1.00000
     22      -5.1177      1.00000
     23      -4.9234      1.00000
     24      -4.7685      1.00000
     25      -4.6364      1.00000
     26      -4.4920      1.00000
     27      -4.4345      1.00000
     28      -4.0618      1.00000
     29      -3.7924      1.00000
     30      -2.9072      1.00000
     31      -2.6922      1.00000
     32      -2.5939      1.00000
     33      -2.3967      1.00000
     34      -2.3418      1.00000
     35      -2.2190      1.00000
     36      -2.1219      1.00000
     37      -1.6585      1.00000
     38      -1.5580      1.00000
     39       0.0574      0.00000
     40       0.0884      0.00000
     41       0.2547      0.00000
     42       0.4167      0.00000
     43       0.6236      0.00000
     44       0.6878      0.00000
     45       0.9309      0.00000
     46       0.9992      0.00000
     47       1.0400      0.00000
[...]
     10      -7.1419      1.00000
     11      -7.0644      1.00000
     12      -7.0521      1.00000
     13      -6.8598      1.00000
     14      -6.7194      1.00000
     15      -6.4160      1.00000
     16      -6.3252      1.00000
     17      -6.2383      1.00000
     18      -5.9977      1.00000
     19      -5.7614      1.00000
     20      -5.6338      1.00000
     21      -5.4448      1.00000
     22      -4.9025      1.00000
     23      -4.8427      1.00000
     24      -4.8230      1.00000
     25      -4.7373      1.00000
     26      -4.4756      1.00000
     27      -4.2358      1.00000
     28      -4.1262      1.00000
     29      -3.7493      1.00000
     30      -2.9596      1.00000
     31      -2.7377      1.00000
     32      -2.5275      1.00000
     33      -2.3639      1.00000
     34      -2.2655      1.00000
     35      -2.0753      1.00000
     36      -1.9172      1.00000
     37      -1.9145      1.00000
     38      -1.8422      1.00000
     39      -0.0057      0.00000
     40       0.0197      0.00000
     41       0.3855      0.00000
     42       0.4239      0.00000
     43       0.5223      0.00000
     44       0.5817      0.00000
     45       1.1174      0.00000
     46       1.1338      0.00000
     47       1.1565      0.00000
     48       1.2340      0.00000

 k-point  75 :       0.3333    0.5000    0.5000
  band No.  band energies     occupation 
      1     -20.1398      1.00000
      2     -19.7530      1.00000
      3     -19.4478      1.00000
      4     -18.9991      1.00000
      5     -18.9240      1.00000
      6     -18.8327      1.00000
      7     -18.7695      1.00000
      8     -18.6872      1.00000
      9      -7.1643      1.00000
     10      -7.1436      1.00000
     11      -7.0633      1.00000
     12      -7.0523      1.00000
     13      -6.8607      1.00000
     14      -6.7172      1.00000
     15      -6.4184      1.00000
     16      -6.3296      1.00000
     17      -6.2401      1.00000
     18      -6.0020      1.00000
     19      -5.7590      1.00000
     20      -5.6303      1.00000
     21      -5.4415      1.00000
     22      -4.9035      1.00000
     23      -4.8393      1.00000
     24      -4.8214      1.00000
     25      -4.7365      1.00000
     26      -4.4717      1.00000
     27      -4.2326      1.00000
     28      -4.1267      1.00000
     29      -3.7546      1.00000
     30      -2.9666      1.00000
     31      -2.7331      1.00000
     32      -2.5278      1.00000
     33      -2.3574      1.00000
     34      -2.2644      1.00000
     35      -2.0804      1.00000
     36      -1.9196      1.00000
     37      -1.9164      1.00000
     38      -1.8440      1.00000
     39      -0.0090      0.00000
     40       0.0179      0.00000
     41       0.3849      0.00000
     42       0.4220      0.00000
     43       0.5212      0.00000
     44       0.5795      0.00000
     45       1.1246      0.00000
     46       1.1388      0.00000
     47       1.1575      0.00000
     48       1.2380      0.00000

 k-point  76 :       0.5000    0.5000    0.5000
  band No.  band energies     occupation 
      1     -20.0013      1.00000
      2     -20.0013      1.00000
      3     -19.1711      1.00000
      4     -19.1711      1.00000
      5     -18.8871      1.00000
      6     -18.8871      1.00000
      7     -18.7171      1.00000
      8     -18.7171      1.00000
      9      -7.1228      1.00000
     10      -7.1228      1.00000
     11      -6.9841      1.00000
     12      -6.9841      1.00000
     13      -6.9464      1.00000
     14      -6.9464      1.00000
     15      -6.3000      1.00000
     16      -6.3000      1.00000
     17      -6.1417      1.00000
     18      -6.1417      1.00000
     19      -5.6679      1.00000
     20      -5.6679      1.00000
     21      -5.2445      1.00000
     22      -5.2445      1.00000
     23      -4.9150      1.00000
     24      -4.9150      1.00000
     25      -4.6540      1.00000
     26      -4.6540      1.00000
     27      -4.0026      1.00000
     28      -4.0026      1.00000
     29      -3.3630      1.00000
     30      -3.3630      1.00000
     31      -2.6740      1.00000
     32      -2.6740      1.00000
     33      -2.2537      1.00000
     34      -2.2537      1.00000
     35      -2.0121      1.00000
     36      -2.0121      1.00000
     37      -1.8230      1.00000
     38      -1.8230      1.00000
     39      -0.2097      0.00000
     40      -0.2097      0.00000
     41       0.5325      0.00000
     42       0.5325      0.00000
     43       0.5862      0.00000
     44       0.5862      0.00000
     45       1.1121      0.00000
     46       1.1121      0.00000
     47       1.2119      0.00000
     48       1.2119      0.00000


--------------------------------------------------------------------------------------------------------


 soft charge-density along one line, spin component           1
         0         1         2         3         4         5         6         7         8         9
 total charge-density along one line
 
 soft charge-density along one line, spin component           2
         0         1         2         3         4         5         6         7         8         9
 total charge-density along one line
 
 pseudopotential strength for first ion, spin component:           1
-10.978  -0.003  -0.002  -0.113  -0.004 -11.453  -0.003  -0.002
 -0.003 -10.866   0.003   0.001  -0.118  -0.003 -11.343   0.003
 -0.002   0.003 -10.974   0.004  -0.001  -0.002   0.003 -11.449
 -0.113   0.001   0.004 -10.866   0.011  -0.112   0.001   0.004
 -0.004  -0.118  -0.001   0.011 -10.973  -0.004  -0.116  -0.001
-11.453  -0.003  -0.002  -0.112  -0.004 -11.904  -0.003  -0.002
 -0.003 -11.343   0.003   0.001  -0.116  -0.003 -11.796   0.003
 -0.002   0.003 -11.449   0.004  -0.001  -0.002   0.003 -11.900
 -0.112   0.001   0.004 -11.343   0.011  -0.110   0.001   0.004
 -0.004  -0.116  -0.001   0.011 -11.448  -0.004  -0.114  -0.001
  0.000  -0.002  -0.008  -0.003   0.000   0.000  -0.002  -0.009
  0.001  -0.004  -0.016  -0.006   0.001   0.001  -0.004  -0.016
  0.000   0.000   0.000  -0.000   0.000   0.000   0.000   0.000
 -0.000  -0.000   0.000   0.000   0.000  -0.000  -0.000   0.000
  0.000  -0.000  -0.000   0.000   0.000   0.000  -0.000  -0.000
  0.000   0.000   0.000  -0.000   0.000   0.000   0.000   0.000
 -0.000  -0.000   0.000   0.000   0.000  -0.000  -0.000   0.000
  0.000  -0.000  -0.000   0.000   0.000   0.000  -0.000  -0.000
 pseudopotential strength for first ion, spin component:           2
 -9.268   0.004  -0.012   0.241   0.010  -9.773   0.004  -0.011
  0.004  -9.303  -0.004   0.005   0.254   0.004  -9.808  -0.003
 -0.012  -0.004  -9.006  -0.005  -0.005  -0.011  -0.003  -9.514
  0.241   0.005  -0.005  -9.296  -0.027   0.238   0.005  -0.005
  0.010   0.254  -0.005  -0.027  -9.281   0.010   0.251  -0.005
 -9.773   0.004  -0.011   0.238   0.010 -10.253   0.004  -0.011
  0.004  -9.808  -0.003   0.005   0.251   0.004 -10.287  -0.003
 -0.011  -0.003  -9.514  -0.005  -0.005  -0.011  -0.003  -9.997
  0.238   0.005  -0.005  -9.801  -0.027   0.235   0.005  -0.005
  0.010   0.251  -0.005  -0.027  -9.785   0.010   0.248  -0.005
 -0.003   0.003  -0.023   0.006  -0.002  -0.003   0.003  -0.024
 -0.007   0.007  -0.045   0.011  -0.004  -0.006   0.007  -0.046
  0.000   0.000   0.000  -0.000   0.000   0.000   0.000   0.000
 -0.000  -0.000   0.000   0.000   0.000  -0.000  -0.000   0.000
  0.000  -0.000  -0.000   0.000   0.000   0.000  -0.000  -0.000
  0.000   0.000   0.000  -0.000   0.000   0.000   0.000   0.000
 -0.000  -0.000   0.000   0.000   0.000  -0.000  -0.000   0.000
  0.000  -0.000  -0.000   0.000   0.000   0.000  -0.000  -0.000
 total augmentation occupancy for first ion, spin component:           1
  6.999  -0.004  -0.206   1.719   0.111  -6.047   0.067   0.150  -0.274  -0.066  -0.028  -0.010   0.000   0.000   0.000   0.000
 -0.004   5.621  -0.011  -0.052   1.839   0.065  -5.134   0.015   0.029  -0.381  -0.001   0.002   0.000  -0.000   0.000  -0.000
 -0.206  -0.011   7.727  -0.018  -0.095   0.151   0.015  -5.524   0.032   0.070   1.005  -0.164   0.000   0.000  -0.000   0.000
  1.719  -0.052  -0.018   5.564  -0.227  -0.297   0.029   0.032  -5.084   0.109   0.018  -0.001   0.000   0.000   0.000   0.000
  0.111   1.839  -0.095  -0.227   6.862  -0.066  -0.358   0.070   0.107  -5.961  -0.005  -0.007   0.000   0.000  -0.000   0.000
 -6.047   0.065   0.151  -0.297  -0.066   6.181  -0.120  -0.104  -0.950   0.034   0.025   0.006   0.000   0.000  -0.000   0.000
  0.067  -5.134   0.015   0.029  -0.358  -0.120   5.654  -0.014  -0.011  -0.897  -0.001  -0.001  -0.000   0.000   0.000   0.000
  0.150   0.015  -5.524   0.032   0.070  -0.104  -0.014   4.569  -0.036  -0.049  -1.018   0.171   0.000  -0.000  -0.000  -0.000
 -0.274   0.029   0.032  -5.084   0.107  -0.950  -0.011  -0.036   5.608  -0.005  -0.023   0.002   0.000   0.000   0.000  -0.000
 -0.066  -0.381   0.070   0.109  -5.961   0.034  -0.897  -0.049  -0.005   6.132   0.002   0.006   0.000  -0.000   0.000   0.000
 -0.028  -0.001   1.005   0.018  -0.005   0.025  -0.001  -1.018  -0.023   0.002   2.858  -0.451   0.000   0.000   0.000   0.000
 -0.010   0.002  -0.164  -0.001  -0.007   0.006  -0.001   0.171   0.002   0.006  -0.451   0.097   0.000   0.000   0.000   0.000
  0.000   0.000   0.000   0.000   0.000   0.000  -0.000  -0.000  -0.000  -0.000   0.000   0.000   0.405   0.001   0.001  -0.033
  0.000   0.000   0.000  -0.000   0.000  -0.000  -0.000   0.000   0.000   0.000  -0.000  -0.000   0.001   0.326  -0.000  -0.000
 -0.000   0.000   0.000   0.000  -0.000  -0.000  -0.000  -0.000   0.000  -0.000  -0.000   0.000   0.001  -0.000   0.404   0.000
 -0.000   0.000   0.000  -0.000   0.000   0.000  -0.000  -0.000   0.000  -0.000   0.000  -0.000  -0.033  -0.000   0.000   0.003
 -0.000  -0.000  -0.000   0.000   0.000   0.000   0.000  -0.000   0.000  -0.000   0.000  -0.000  -0.000  -0.026   0.000   0.000
  0.000   0.000  -0.000   0.000   0.000   0.000  -0.000   0.000   0.000   0.000  -0.000  -0.000   0.000   0.000  -0.033  -0.000
 total augmentation occupancy for first ion, spin component:           2
  3.900   0.136  -0.212   3.563   0.113  -2.143  -0.110   0.178  -2.467  -0.058  -0.072  -0.012   0.000   0.000   0.000   0.000
  0.136   2.504  -0.008  -0.095   3.668  -0.110  -1.180   0.001   0.089  -2.556   0.026   0.002   0.000  -0.000   0.000   0.000
 -0.212  -0.008   6.661  -0.004  -0.098   0.172   0.005  -4.062   0.003   0.081   0.190   0.006   0.000   0.000   0.000  -0.000
  3.563  -0.095  -0.004   2.438  -0.315  -2.500   0.089  -0.005  -1.111   0.206   0.042   0.003  -0.000   0.000   0.000   0.000
  0.113   3.668  -0.098  -0.315   3.767  -0.058  -2.520   0.084   0.201  -2.078  -0.038  -0.006   0.000   0.000  -0.000   0.000
 -2.143  -0.110   0.172  -2.500  -0.058   1.040   0.093  -0.148   1.807   0.020   0.051   0.008   0.000  -0.000   0.000  -0.000
 -0.110  -1.180   0.005   0.089  -2.520   0.093   0.365  -0.003  -0.081   1.831  -0.010  -0.001   0.000   0.000   0.000  -0.000
  0.178   0.001  -4.062  -0.005   0.084  -0.148  -0.003   2.442  -0.002  -0.070  -0.095  -0.012   0.000   0.000   0.000  -0.000
 -2.467   0.089   0.003  -1.111   0.201   1.807  -0.081  -0.002   0.297  -0.134  -0.016  -0.003  -0.000   0.000  -0.000   0.000
 -0.058  -2.556   0.081   0.206  -2.078   0.020   1.831  -0.070  -0.134   1.023   0.027   0.004   0.000   0.000   0.000   0.000
 -0.072   0.026   0.190   0.042  -0.038   0.051  -0.010  -0.095  -0.016   0.027  -0.245   0.095   0.000  -0.000   0.000   0.000
 -0.012   0.002   0.006   0.003  -0.006   0.008  -0.001  -0.012  -0.003   0.004   0.095  -0.019   0.000  -0.000   0.000   0.000
 -0.000  -0.000   0.000  -0.000  -0.000   0.000  -0.000   0.000  -0.000  -0.000   0.000   0.000   0.011  -0.000  -0.008  -0.000
  0.000   0.000   0.000   0.000   0.000  -0.000  -0.000   0.000   0.000   0.000   0.000   0.000  -0.000   0.014  -0.001   0.000
  0.000   0.000  -0.000   0.000   0.000   0.000   0.000   0.000  -0.000   0.000  -0.000   0.000  -0.008  -0.001   0.003  -0.000
  0.000   0.000   0.000   0.000   0.000   0.000   0.000   0.000  -0.000   0.000   0.000   0.000  -0.000   0.000  -0.000  -0.000
  0.000   0.000   0.000   0.000   0.000   0.000  -0.000  -0.000   0.000   0.000   0.000   0.000   0.000  -0.001   0.000  -0.000
 -0.000   0.000   0.000  -0.000  -0.000   0.000   0.000  -0.000   0.000  -0.000  -0.000   0.000  -0.000   0.000  -0.000   0.000


------------------------ aborting loop because EDIFF is reached ----------------------------------------


    CHARGE:  cpu time    0.20: real time    0.20
    FORLOC:  cpu time    0.00: real time    0.00
    FORNL :  cpu time    1.09: real time    1.09
    STRESS:  cpu time    1.42: real time    1.43
    FORCOR:  cpu time    0.02: real time    0.02
    FORHAR:  cpu time    0.00: real time    0.00
    MIXING:  cpu time    0.00: real time    0.00

  FORCE on cell =-STRESS in cart. coord.  units (eV):
  Direction    XX          YY          ZZ          XY          YZ          ZX
  --------------------------------------------------------------------------------------
  Alpha Z   194.64267   194.64267   194.64267
  Ewald    2415.56248  2419.95436 -5658.56743    -0.17777   -12.34773   -42.19188
  Hartree  3591.32649  3592.57791 -2959.90040     0.14401   -11.04999   -34.62471
  E(xc)    -369.43170  -369.45031  -368.79299    -0.01319    -0.01243     0.00475
  Local   -7040.68120 -7045.56912  7530.72026    -0.51789    24.15511    77.87266
  n-local  -257.30511  -256.82561  -267.29367    -0.33732     0.15814     0.14338
  augment   170.68209   170.43463   177.06068     0.23323    -0.14210    -0.21745
  Kinetic  1295.02334  1294.36397  1351.93806     0.53530    -0.49955    -0.85708
  Fock        0.00000     0.00000     0.00000     0.00000     0.00000     0.00000
  -------------------------------------------------------------------------------------
  Total      -0.18093     0.12849    -0.19282    -0.13362     0.26145     0.12967
  in kB      -1.48261     1.05291    -1.58003    -1.09498     2.14244     1.06261
  external pressure =       -0.67 kB  Pullay stress =        0.00 kB


 VOLUME and BASIS-vectors are now :
 -----------------------------------------------------------------------------
  energy-cutoff  :      520.00
  volume of cell :      195.52
      direct lattice vectors                 reciprocal lattice vectors
     5.670182616  0.116872916 -0.029711124     0.174321979  0.105492621  0.025804607
    -2.937302322  4.852095914  0.006821993    -0.004304980  0.203519938 -0.021004093
    -1.460049503  0.694170796  7.025444003     0.000741401  0.000248510  0.142469284

  length of vectors
     5.671464796  5.671915569  7.209055492     0.205384330  0.204646207  0.142471429


 FORCES acting on ions
    electron-ion (+dipol)            ewald-force                    non-local-force                 convergence-correction
 -----------------------------------------------------------------------------------------------
   0.179E-06 -.819E-07 0.532E-06   -.176E-05 0.809E-06 -.534E-05   -.146E-21 0.178E-23 0.190E-21   0.525E-08 0.942E-09 0.811E-06
   0.179E-06 -.819E-07 0.532E-06   -.176E-05 0.809E-06 -.534E-05   -.713E-22 -.634E-22 -.440E-21   0.525E-08 0.942E-09 0.811E-06
   0.179E-06 -.819E-07 0.532E-06   -.176E-05 0.809E-06 -.534E-05   0.236E-22 -.184E-22 0.226E-21   0.525E-08 0.942E-09 0.811E-06
   0.179E-06 -.819E-07 0.532E-06   -.176E-05 0.809E-06 -.534E-05   0.255E-23 -.710E-23 -.199E-21   0.525E-08 0.942E-09 0.811E-06
   -.247E+01 -.106E+01 -.464E+03   0.253E+01 0.108E+01 0.490E+03   -.377E-01 0.598E-02 -.258E+02   -.173E-03 -.125E-03 0.293E-01
   0.247E+01 0.106E+01 0.464E+03   -.253E+01 -.108E+01 -.490E+03   0.377E-01 -.598E-02 0.258E+02   0.173E-03 0.125E-03 -.293E-01
   -.247E+01 -.106E+01 -.464E+03   0.253E+01 0.108E+01 0.490E+03   -.377E-01 0.598E-02 -.258E+02   -.173E-03 -.127E-03 0.293E-01
   0.247E+01 0.106E+01 0.464E+03   -.253E+01 -.108E+01 -.490E+03   0.377E-01 -.598E-02 0.258E+02   0.173E-03 0.127E-03 -.293E-01
   -.247E+01 -.106E+01 -.464E+03   0.253E+01 0.108E+01 0.490E+03   -.377E-01 0.598E-02 -.258E+02   -.173E-03 -.125E-03 0.293E-01
   0.247E+01 0.106E+01 0.464E+03   -.253E+01 -.108E+01 -.490E+03   0.377E-01 -.598E-02 0.258E+02   0.173E-03 0.125E-03 -.293E-01
   -.247E+01 -.106E+01 -.464E+03   0.253E+01 0.108E+01 0.490E+03   -.377E-01 0.598E-02 -.258E+02   -.173E-03 -.127E-03 0.293E-01
   0.247E+01 0.106E+01 0.464E+03   -.253E+01 -.108E+01 -.490E+03   0.377E-01 -.598E-02 0.258E+02   0.173E-03 0.127E-03 -.293E-01
 -----------------------------------------------------------------------------------------------
   0.666E-04 -.321E-04 -.403E-03   -.275E-13 -.555E-14 -.568E-13   0.611E-15 -.737E-16 0.249E-13   0.340E-07 0.138E-07 0.718E-05
 
 
 POSITION                                       TOTAL-FORCE (eV/Angst)
 -----------------------------------------------------------------------------------
      0.00000      0.00000      0.00000        -0.000000     -0.000000     -0.000000
     -1.46865      2.42605      0.00341        -0.000000     -0.000000     -0.000000
      2.83509      0.05844     -0.01486        -0.000000      0.000000     -0.000000
      1.36644      2.48448     -0.01144        -0.000000      0.000000     -0.000000
     -1.49780      4.06294      0.96033         0.017245      0.033545      0.001290
      2.77063      1.60020      6.04223        -0.017245     -0.033545     -0.001290
     -0.02915      1.63689      0.95692         0.017245      0.033545      0.001290
      1.30198      4.02625      6.04564        -0.017245     -0.033545     -0.001290
      1.33729      4.12137      0.94547         0.017245      0.033545      0.001290
     -0.06446      1.54177      6.05708        -0.017245     -0.033545     -0.001290
      2.80594      1.69533      0.94206         0.017245      0.033545      0.001290
     -1.53311      3.96781      6.06049        -0.017245     -0.033545     -0.001290
 -----------------------------------------------------------------------------------
    total drift:                                0.000067     -0.000032     -0.000396


--------------------------------------------------------------------------------------------------------



  FREE ENERGIE OF THE ION-ELECTRON SYSTEM (eV)
  ---------------------------------------------------
  free  energy   TOTEN  =       -99.80207562 eV

  energy  without entropy=      -99.80207562  energy(sigma->0) =      -99.80207562
 


--------------------------------------------------------------------------------------------------------


    POTLOK:  cpu time    0.03: real time    0.03


--------------------------------------------------------------------------------------------------------


     LOOP+:  cpu time   95.76: real time   98.20
    4ORBIT:  cpu time    0.00: real time    0.00
 BZINTS: Fermi energy: -1.464115; 76.000000 electrons
         Band energy:-587.700663;  BLOECHL correction:  0.000000

 total amount of memory used by VASP on root node    81710. kBytes
========================================================================

   base      :      30000. kBytes
   nonl-proj :      29322. kBytes
   fftplans  :        672. kBytes
   grid      :       1662. kBytes
   one-center:         93. kBytes
   wavefun   :      19961. kBytes
 
  
  
 General timing and accounting informations for this job:
 ========================================================
  
                  Total CPU time used (sec):       98.913
                            User time (sec):       98.612
                          System time (sec):        0.301
                         Elapsed time (sec):      102.161
  
                   Maximum memory used (kb):      168972.
                   Average memory used (kb):           0.
  
                          Minor page faults:        14921
                          Major page faults:            0
                 Voluntary context switches:         4276
