 vasp.5.3.3 18Dez12 (build May 12 2016 12:04:25) complex                        
  
 executed on             LinuxIFC date 2017.03.09  13:10:28
 running on   32 total cores
 distrk:  each k-point on   32 cores,    1 groups
 distr:  one band on NCORES_PER_BAND=   4 cores,    8 groups


--------------------------------------------------------------------------------------------------------


 INCAR:
 POTCAR:    PAW_PBE Mn 06Sep2000                  
 POTCAR:    PAW_PBE O 08Apr2002                   
 POTCAR:    PAW_PBE Li 17Jan2003                  
 POTCAR:    PAW_PBE Mn 06Sep2000                  
  local pseudopotential read in
  partial core-charges read in
  partial kinetic energy density read in
  atomic valenz-charges read in
  non local Contribution for L=           2  read in
    real space projection operators read in
  non local Contribution for L=           2  read in
    real space projection operators read in
  non local Contribution for L=           0  read in
    real space projection operators read in
  non local Contribution for L=           0  read in
    real space projection operators read in
  non local Contribution for L=           1  read in
    real space projection operators read in
  non local Contribution for L=           1  read in
    real space projection operators read in
    PAW grid and wavefunctions read in
 
   number of l-projection  operators is LMAX  =           6
   number of lm-projection operators is LMMAX =          18
 
 POTCAR:    PAW_PBE O 08Apr2002                   
  local pseudopotential read in
  partial core-charges read in
  partial kinetic energy density read in
  kinetic energy density of atom read in
  atomic valenz-charges read in
  non local Contribution for L=           0  read in
    real space projection operators read in
  non local Contribution for L=           0  read in
    real space projection operators read in
  non local Contribution for L=           1  read in
    real space projection operators read in
  non local Contribution for L=           1  read in
    real space projection operators read in
    PAW grid and wavefunctions read in
 
   number of l-projection  operators is LMAX  =           4
   number of lm-projection operators is LMMAX =           8
 
 POTCAR:    PAW_PBE Li 17Jan2003                  
  local pseudopotential read in
  partial core-charges read in
  partial kinetic energy density read in
  atomic valenz-charges read in
  non local Contribution for L=           0  read in
    real space projection operators read in
  non local Contribution for L=           0  read in
    real space projection operators read in
  non local Contribution for L=           1  read in
    real space projection operators read in
    PAW grid and wavefunctions read in
 
   number of l-projection  operators is LMAX  =           3
   number of lm-projection operators is LMMAX =           5
 

 ----------------------------------------------------------------------------- 
|                                                                             |
|  ADVICE TO THIS USER RUNNING 'VASP/VAMP'   (HEAR YOUR MASTER'S VOICE ...):  |
|                                                                             |
|      You have a (more or less) 'large supercell' and for larger cells       |
|      it might be more efficient to use real space projection opertators     |
|      So try LREAL= Auto  in the INCAR   file.                               |
|      Mind: At the moment your POTCAR file does not contain real space       |
|       projectors, and has to be modified,  BUT if you                       |
|      want to do an extremely  accurate calculation you might also keep the  |
|      reciprocal projection scheme          (i.e. LREAL=.FALSE.)             |
|                                                                             |
 ----------------------------------------------------------------------------- 

  PAW_PBE Mn 06Sep2000                  :
 energy of atom  1       EATOM= -416.7541
 kinetic energy error for atom=    0.0024 (will be added to EATOM!!)
  PAW_PBE O 08Apr2002                   :
 energy of atom  2       EATOM= -432.3788
 kinetic energy error for atom=    0.0208 (will be added to EATOM!!)
  PAW_PBE Li 17Jan2003                  :
 energy of atom  3       EATOM=   -5.3001
 kinetic energy error for atom=    0.0000 (will be added to EATOM!!)
 
 
 POSCAR: mno2                                    
  positions in direct lattice
  velocities in cartesian coordinates
 exchange correlation table for  LEXCH =        8
   RHO(1)=    0.500       N(1)  =     2000
   RHO(2)=  100.500       N(2)  =     4000
 


--------------------------------------------------------------------------------------------------------


 ion  position               nearest neighbor table
   1  0.250  0.132  0.656-  24 1.95  24 1.95  34 1.97  34 1.97  13 2.17  30 2.36  38 2.58  47 3.05
                            47 3.05   9 3.10   9 3.10
   2  0.250  0.117  0.323-  22 1.94  22 1.94  35 1.96  35 1.96  28 2.29  14 2.39  37 2.56  42 2.97
                            42 2.97  45 3.01  45 3.01   7 3.17   7 3.17
   3  0.250  0.134  0.987-  23 1.94  23 1.94  36 1.96  36 1.96  15 2.32  29 2.41  38 2.54  37 2.64
                            46 3.01  46 3.01   8 3.15   8 3.15
   4  0.250  0.627  0.510-  19 1.92  19 1.92  31 1.94  31 1.94  39 2.53  16 2.54  40 2.58
   5  0.250  0.631  0.181-  20 1.94  20 1.94  32 1.95  32 1.95  17 2.22  26 2.51  40 2.57  41 2.59
                            43 3.05  43 3.05  11 3.17  11 3.17
   6  0.250  0.651  0.845-  33 1.94  33 1.94  21 1.96  21 1.96  18 2.23  27 2.51  41 2.62  39 2.68
                            44 2.99  44 2.99
   7  0.750  0.848  0.350-  28 1.94  28 1.94  17 1.96  17 1.96  19 2.17  35 2.55  43 2.58  42 2.71
                            40 3.05  40 3.05   2 3.17   2 3.17
   8  0.750  0.867  0.017-  29 1.95  29 1.95  18 1.96  18 1.96  20 2.22  36 2.49  44 2.59  43 2.61
                            41 3.01  41 3.01   3 3.15   3 3.15
   9  0.750  0.871  0.684-  16 1.88  16 1.88  30 1.96  30 1.96  34 1.98  21 2.02  44 2.60  39 3.05
                            39 3.05   1 3.10   1 3.10
  10  0.750  0.341  0.483-  13 1.95  13 1.95  25 1.95  25 1.95  22 2.18  45 2.57  47 2.61
  11  0.750  0.365  0.150-  14 1.94  14 1.94  26 1.96  26 1.96  23 2.26  32 2.41  46 2.55  45 2.58
                            37 2.99  37 2.99   5 3.17   5 3.17
  12  0.750  0.378  0.817-  15 1.94  15 1.94  27 1.94  27 1.94  24 2.34  33 2.44  46 2.60  47 2.62
                            38 2.99  38 2.99
  13  0.250  0.293  0.563-  10 1.95  10 1.95   1 2.17  47 2.21  47 2.21
  14  0.250  0.294  0.221-  11 1.94  11 1.94  37 2.17  45 2.22  45 2.22   2 2.39
  15  0.250  0.307  0.889-  12 1.94  12 1.94  38 2.17  46 2.25  46 2.25   3 2.32
  16  0.250  0.795  0.625-   9 1.88   9 1.88  39 2.02   4 2.54
  17  0.250  0.788  0.275-   7 1.96   7 1.96   5 2.22  43 2.23  43 2.23  40 2.31
  18  0.250  0.804  0.942-   8 1.96   8 1.96   6 2.23  41 2.24  44 2.25  44 2.25
  19  0.750  0.675  0.433-   4 1.92   4 1.92  40 2.17  40 2.17   7 2.17
  20  0.750  0.698  0.107-   5 1.94   5 1.94   8 2.22  41 2.23  41 2.23  43 2.36
  21  0.750  0.725  0.773-   6 1.96   6 1.96   9 2.02  44 2.23  39 2.42  39 2.42
  22  0.750  0.184  0.394-   2 1.94   2 1.94  42 2.15  10 2.18  45 2.26
  23  0.750  0.202  0.057-   3 1.94   3 1.94  46 2.20  11 2.26  37 2.29  37 2.29
  24  0.750  0.206  0.724-   1 1.95   1 1.95  47 2.22  38 2.24  38 2.24  12 2.34
  25  0.250  0.424  0.416-  10 1.95  10 1.95  40 2.02  45 2.18  45 2.18
  26  0.250  0.445  0.080-  11 1.96  11 1.96  41 2.00  46 2.15  46 2.15   5 2.51
  27  0.250  0.460  0.750-  12 1.94  12 1.94  39 1.96  47 2.27  47 2.27   6 2.51
  28  0.250  0.935  0.410-   7 1.94   7 1.94  42 2.00  42 2.00   2 2.29
  29  0.250  0.946  0.082-   8 1.95   8 1.95  37 2.12  43 2.21  43 2.21   3 2.41
  30  0.250  0.949  0.750-   9 1.96   9 1.96  44 2.15  44 2.15  38 2.19   1 2.36
  31  0.750  0.558  0.583-   4 1.94   4 1.94  47 1.99  39 2.10  39 2.10
  32  0.750  0.544  0.246-   5 1.95   5 1.95  45 2.08  40 2.17  40 2.17  11 2.41
  33  0.750  0.564  0.909-   6 1.94   6 1.94  46 2.15  41 2.23  41 2.23  12 2.44
  34  0.750  0.026  0.607-  42 1.97   1 1.97   1 1.97   9 1.98
  35  0.750  0.048  0.251-   2 1.96   2 1.96  43 1.98  37 2.13  37 2.13   7 2.55
  36  0.750  0.060  0.918-   3 1.96   3 1.96  44 1.98  38 2.14  38 2.14   8 2.49
  37  0.250  0.112  0.157-  29 2.12  35 2.13  35 2.13  14 2.17  23 2.29  23 2.29   2 2.56   3 2.64
                            43 2.76  43 2.76  11 2.99  11 2.99
  38  0.250  0.126  0.823-  36 2.14  36 2.14  15 2.17  30 2.19  24 2.24  24 2.24   3 2.54   1 2.58
                            44 2.76  44 2.76  12 2.99  12 2.99
  39  0.250  0.613  0.674-  27 1.96  16 2.02  31 2.10  31 2.10  21 2.42  21 2.42   4 2.53   6 2.68
                            47 2.77  47 2.77   9 3.05   9 3.05
  40  0.250  0.590  0.346-  25 2.02  19 2.17  19 2.17  32 2.17  32 2.17  17 2.31   5 2.57   4 2.58
                            45 2.74  45 2.74   7 3.05   7 3.05
  41  0.250  0.613  0.014-  26 2.00  20 2.23  20 2.23  33 2.23  33 2.23  18 2.24   5 2.59   6 2.62
                            46 2.79  46 2.79   8 3.01   8 3.01
  42  0.750  0.017  0.480-  34 1.97  28 2.00  28 2.00  22 2.15   7 2.71   2 2.97   2 2.97
  43  0.750  0.889  0.185-  35 1.98  29 2.21  29 2.21  17 2.23  17 2.23  20 2.36   7 2.58   8 2.61
                            37 2.76  37 2.76   5 3.05   5 3.05
  44  0.750  0.902  0.850-  36 1.98  30 2.15  30 2.15  21 2.23  18 2.25  18 2.25   8 2.59   9 2.60
                            38 2.76  38 2.76   6 2.99   6 2.99
  45  0.750  0.371  0.317-  32 2.08  25 2.18  25 2.18  14 2.22  14 2.22  22 2.26  10 2.57  11 2.58
                            40 2.74  40 2.74   2 3.01   2 3.01
  46  0.750  0.388  0.985-  33 2.15  26 2.15  26 2.15  23 2.20  15 2.25  15 2.25  11 2.55  12 2.60
                            41 2.79  41 2.79   3 3.01   3 3.01
  47  0.750  0.390  0.648-  31 1.99  13 2.21  13 2.21  24 2.22  27 2.27  27 2.27  10 2.61  12 2.62
                            39 2.77  39 2.77   1 3.05   1 3.05
 
  LATTYP: Found a simple monoclinic cell.
 ALAT       =    18.9028735321
 B/A-ratio  =     0.1514264721
 C/A-ratio  =     1.3931865028
 COS(beta)  =    -0.9463164446
  
  Lattice vectors:
  
 A1 = ( -10.6676891843,   0.0000000000,  15.6050964507)
 A2 = (   0.0000000000,  -2.8623954517,   0.0000000000)
 A3 = (  21.0917672282,   0.0000000000, -15.7696418219)


Analysis of symmetry for initial positions (statically):
=====================================================================
 Subroutine PRICEL returns:
 Original cell was already a primitive cell.
 

 Routine SETGRP: Setting up the symmetry group for a 
 simple monoclinic supercell.


 Subroutine GETGRP returns: Found  2 space group operations
 (whereof  1 operations were pure point group operations)
 out of a pool of  4 trial point group operations.


The static configuration has the point symmetry C_1 .
 The point group associated with its full space group is C_1h.


Analysis of symmetry for dynamics (positions and initial velocities):
=====================================================================
 Subroutine PRICEL returns:
 Original cell was already a primitive cell.
 

 Routine SETGRP: Setting up the symmetry group for a 
 simple monoclinic supercell.


 Subroutine GETGRP returns: Found  2 space group operations
 (whereof  1 operations were pure point group operations)
 out of a pool of  4 trial point group operations.


The dynamic configuration has the point symmetry C_1 .
 The point group associated with its full space group is C_1h.


Analysis of magnetic symmetry:
=====================================================================

 Subroutine MAGSYM returns: Found  2 space group operations
 (whereof  1 operations were pure point group operations)
 out of a pool of  2 trial space group operations
 (whereof  1 operations were pure point group operations)
 and found also     1 'primitive' translations


The magnetic configuration has the point symmetry C_1 .
 The point group associated with its full space group is C_1h.


 irot  :   1
 --------------------------------------------------------------------
 isymop:   1   0   0
           0   1   0
           0   0   1

 gtrans:     0.0000000     0.0000000     0.0000000

 ptrans:     0.0000000     0.0000000     0.0000000
 rotmap:
 (   1->   1)  (   2->   2)  (   3->   3)  (   4->   4)  (   5->   5) 
 (   6->   6)  (   7->   7)  (   8->   8)  (   9->   9)  (  10->  10) 
 (  11->  11)  (  12->  12)  (  13->  13)  (  14->  14)  (  15->  15) 
 (  16->  16)  (  17->  17)  (  18->  18)  (  19->  19)  (  20->  20) 
 (  21->  21)  (  22->  22)  (  23->  23)  (  24->  24)  (  25->  25) 
 (  26->  26)  (  27->  27)  (  28->  28)  (  29->  29)  (  30->  30) 
 (  31->  31)  (  32->  32)  (  33->  33)  (  34->  34)  (  35->  35) 
 (  36->  36)  (  37->  37)  (  38->  38)  (  39->  39)  (  40->  40) 
 (  41->  41)  (  42->  42)  (  43->  43)  (  44->  44)  (  45->  45) 
 (  46->  46)  (  47->  47) 


 irot  :   2
 --------------------------------------------------------------------
 isymop:  -1   0   0
           0   1   0
           0   0   1

 gtrans:    -0.5000000     0.0000000     0.0000000

 ptrans:     0.0000000     0.0000000     0.0000000
 rotmap:
 (   1->   1)  (   2->   2)  (   3->   3)  (   4->   4)  (   5->   5) 
 (   6->   6)  (   7->   7)  (   8->   8)  (   9->   9)  (  10->  10) 
 (  11->  11)  (  12->  12)  (  13->  13)  (  14->  14)  (  15->  15) 
 (  16->  16)  (  17->  17)  (  18->  18)  (  19->  19)  (  20->  20) 
 (  21->  21)  (  22->  22)  (  23->  23)  (  24->  24)  (  25->  25) 
 (  26->  26)  (  27->  27)  (  28->  28)  (  29->  29)  (  30->  30) 
 (  31->  31)  (  32->  32)  (  33->  33)  (  34->  34)  (  35->  35) 
 (  36->  36)  (  37->  37)  (  38->  38)  (  39->  39)  (  40->  40) 
 (  41->  41)  (  42->  42)  (  43->  43)  (  44->  44)  (  45->  45) 
 (  46->  46)  (  47->  47) 
 
 
 KPOINTS: Automatic mesh                          

Automatic generation of k-mesh.
Space group operators:
 irot       det(A)        alpha          n_x          n_y          n_z        tau_x        tau_y        tau_z
    1     1.000000     0.000000     1.000000     0.000000     0.000000     0.000000     0.000000     0.000000
    2    -1.000000   180.000000     0.000000     1.000000     0.000000    -0.500000     0.000000     0.000000
 
 Subroutine IBZKPT returns following result:
 ===========================================
 
 Found     24 irreducible k-points:
 
 Following reciprocal coordinates:
            Coordinates               Weight
  0.000000  0.000000  0.000000      1.000000
  0.100000  0.000000  0.000000      2.000000
  0.200000  0.000000  0.000000      2.000000
  0.300000  0.000000  0.000000      2.000000
  0.400000  0.000000  0.000000      2.000000
  0.500000  0.000000  0.000000      1.000000
  0.000000  0.333333 -0.000000      2.000000
  0.100000  0.333333 -0.000000      4.000000
  0.200000  0.333333 -0.000000      4.000000
  0.300000  0.333333 -0.000000      4.000000
  0.400000  0.333333 -0.000000      4.000000
  0.500000  0.333333 -0.000000      2.000000
  0.000000 -0.000000  0.500000      1.000000
  0.100000 -0.000000  0.500000      2.000000
  0.200000 -0.000000  0.500000      2.000000
  0.300000 -0.000000  0.500000      2.000000
  0.400000 -0.000000  0.500000      2.000000
  0.500000 -0.000000  0.500000      1.000000
  0.000000  0.333333  0.500000      2.000000
  0.100000  0.333333  0.500000      4.000000
  0.200000  0.333333  0.500000      4.000000
  0.300000  0.333333  0.500000      4.000000
  0.400000  0.333333  0.500000      4.000000
  0.500000  0.333333  0.500000      2.000000
 
 Following cartesian coordinates:
            Coordinates               Weight
  0.000000  0.000000  0.000000      1.000000
  0.000000  0.034936  0.000000      2.000000
  0.000000  0.069872  0.000000      2.000000
  0.000000  0.104807  0.000000      2.000000
  0.000000  0.139743  0.000000      2.000000
  0.000000  0.174679  0.000000      1.000000
  0.031985  0.000000  0.000505      2.000000
  0.031985  0.034936  0.000505      4.000000
  0.031985  0.069872  0.000505      4.000000
  0.031985  0.104807  0.000505      4.000000
  0.031985  0.139743  0.000505      4.000000
  0.031985  0.174679  0.000505      2.000000
 -0.000511  0.000000 -0.032390      1.000000
 -0.000511  0.034936 -0.032390      2.000000
 -0.000511  0.069872 -0.032390      2.000000
 -0.000511  0.104807 -0.032390      2.000000
 -0.000511  0.139743 -0.032390      2.000000
 -0.000511  0.174679 -0.032390      1.000000
  0.031474  0.000000 -0.031886      2.000000
  0.031474  0.034936 -0.031886      4.000000
  0.031474  0.069872 -0.031886      4.000000
  0.031474  0.104807 -0.031886      4.000000
  0.031474  0.139743 -0.031886      4.000000
  0.031474  0.174679 -0.031886      2.000000
 
 TETIRR: Found    180 inequivalent tetrahedra from      360


--------------------------------------------------------------------------------------------------------




 Dimension of arrays:
   k-points           NKPTS =     24   k-points in BZ     NKDIM =     24   number of bands    NBANDS=    144
   number of dos      NEDOS =    301   number of ions     NIONS =     47
   non local maximal  LDIM  =      6   non local SUM 2l+1 LMDIM =     18
   total plane-waves  NPLWV =  86400
   max r-space proj   IRMAX =      1   max aug-charges    IRDMAX=   7095
   dimension x,y,z NGX =    16 NGY =   60 NGZ =   90
   dimension x,y,z NGXF=    32 NGYF=  120 NGZF=  180
   support grid    NGXF=    32 NGYF=  120 NGZF=  180
   ions per type =              12  24  11
 NGX,Y,Z   is equivalent  to a cutoff of   9.29,  9.57,  9.69 a.u.
 NGXF,Y,Z  is equivalent  to a cutoff of  18.59, 19.14, 19.38 a.u.


 I would recommend the setting:
   dimension x,y,z NGX =    16 NGY =   58 NGZ =   86
 SYSTEM =  unknown system                          
 POSCAR =  mno2                                    

 Startparameter for this run:
   NWRITE =      1    write-flag & timer
   PREC   = normal    normal or accurate (medium, high low for compatibility)
   ISTART =      1    job   : 0-new  1-cont  2-samecut
   ICHARG =     11    charge: 1-file 2-atom 10-const
   ISPIN  =      2    spin polarized calculation?
   LNONCOLLINEAR =      F non collinear calculations
   LSORBIT =      F    spin-orbit coupling
   INIWAV =      1    electr: 0-lowe 1-rand  2-diag
   LASPH  =      F    aspherical Exc in radial PAW
   METAGGA=      F    non-selfconsistent MetaGGA calc.

 Electronic Relaxation 1
   ENCUT  =  520.0 eV  38.22 Ry    6.18 a.u.   5.32 19.38 28.71*2*pi/ulx,y,z
   ENINI  =  520.0     initial cutoff
   ENAUG  =  605.4 eV  augmentation charge cutoff
   NELM   =     60;   NELMIN=  5; NELMDL=  0     # of ELM steps 
   EDIFF  = 0.1E-04   stopping-criterion for ELM
   LREAL  =      F    real-space projection
   NLSPLINE    = F    spline interpolate recip. space projectors
   LCOMPAT=      F    compatible to vasp.4.4
   GGA_COMPAT  = T    GGA compatible to vasp.4.4-vasp.4.6
   LMAXPAW     = -100 max onsite density
   LMAXMIX     =    4 max onsite mixed and CHGCAR
   VOSKOWN=      1    Vosko Wilk Nusair interpolation
   ROPT   =    0.00000   0.00000   0.00000
 Ionic relaxation
   EDIFFG = -.2E-01   stopping-criterion for IOM
   NSW    =      0    number of steps for IOM
   NBLOCK =      1;   KBLOCK =      1    inner block; outer block 
   IBRION =     -1    ionic relax: 0-MD 1-quasi-New 2-CG
   NFREE  =      0    steps in history (QN), initial steepest desc. (CG)
   ISIF   =      2    stress and relaxation
   IWAVPR =     10    prediction:  0-non 1-charg 2-wave 3-comb
   ISYM   =      2    0-nonsym 1-usesym 2-fastsym
   LCORR  =      T    Harris-Foulkes like correction to forces

   POTIM  = 0.5000    time-step for ionic-motion
   TEIN   =    0.0    initial temperature
   TEBEG  =    0.0;   TEEND  =   0.0 temperature during run
   SMASS  =  -3.00    Nose mass-parameter (am)
   estimated Nose-frequenzy (Omega)   =  0.10E-29 period in steps =****** mass=  -0.187E-27a.u.
   SCALEE = 1.0000    scale energy and forces
   NPACO  =    256;   APACO  = 16.0  distance and # of slots for P.C.
   PSTRESS=    0.0 pullay stress

  Mass of Ions in am
   POMASS =  54.94 16.00  7.01
  Ionic Valenz
   ZVAL   =   7.00  6.00  1.00
  Atomic Wigner-Seitz radii
   RWIGS  =  -1.00 -1.00 -1.00
  virtual crystal weights 
   VCA    =   1.00  1.00  1.00
   NELECT =     239.0000    total number of electrons
   NUPDOWN=      -1.0000    fix difference up-down

 DOS related values:
   EMIN   =  10.00;   EMAX   =-10.00  energy-range for DOS
   EFERMI =   0.00
   ISMEAR =    -5;   SIGMA  =   0.20  broadening in eV -4-tet -1-fermi 0-gaus

 Electronic relaxation 2 (details)
   IALGO  =     38    algorithm
   LDIAG  =      T    sub-space diagonalisation (order eigenvalues)
   LSUBROT=      T    optimize rotation matrix (better conditioning)
   TURBO    =      0    0=normal 1=particle mesh
   IRESTART =      0    0=no restart 2=restart with 2 vectors
   NREBOOT  =      0    no. of reboots
   NMIN     =      0    reboot dimension
   EREF     =   0.00    reference energy to select bands
   IMIX   =      4    mixing-type and parameters
     AMIX     =   0.40;   BMIX     =  1.00
     AMIX_MAG =   1.60;   BMIX_MAG =  1.00
     AMIN     =   0.10
     WC   =   100.;   INIMIX=   1;  MIXPRE=   1;  MAXMIX= -45

 Intra band minimization:
   WEIMIN = 0.0000     energy-eigenvalue tresh-hold
   EBREAK =  0.17E-07  absolut break condition
   DEPER  =   0.30     relativ break condition  

   TIME   =   0.40     timestep for ELM

  volume/ion in A,a.u.               =       9.80        66.13
  Fermi-wavevector in a.u.,A,eV,Ry     =   1.315528  2.485988 23.546439  1.730614
  Thomas-Fermi vector in A             =   2.445704
 
 Write flags
   LWAVE  =      T    write WAVECAR
   LCHARG =      T    write CHGCAR
   LVTOT  =      F    write LOCPOT, total local potential
   LVHAR  =      F    write LOCPOT, Hartree potential only
   LELF   =      F    write electronic localiz. function (ELF)
   LORBIT =     11    0 simple, 1 ext, 2 COOP (PROOUT)


 Dipole corrections
   LMONO  =      F    monopole corrections only (constant potential shift)
   LDIPOL =      F    correct potential (dipole corrections)
   IDIPOL =      0    1-x, 2-y, 3-z, 4-all directions 
   EPSILON=  1.0000000 bulk dielectric constant

 LDA+U is selected, type is set to LDAUTYPE =  2
   angular momentum for each species LDAUL =     2   -1   -1
   U (eV)           for each species LDAUU =   3.9  0.0  0.0
   J (eV)           for each species LDAUJ =   0.0  0.0  0.0
 Exchange correlation treatment:
   GGA     =    --    GGA type
   LEXCH   =     8    internal setting for exchange type
   VOSKOWN=      1    Vosko Wilk Nusair interpolation
   LHFCALC =     F    Hartree Fock is set to
   LHFONE  =     F    Hartree Fock one center treatment
   AEXX    =    0.0000 exact exchange contribution

 Linear response parameters
   LEPSILON=     F    determine dielectric tensor
   LRPA    =     F    only Hartree local field effects (RPA)
   LNABLA  =     F    use nabla operator in PAW spheres
   LVEL    =     F    velocity operator in full k-point grid
   LINTERFAST=   F  fast interpolation
   KINTER  =     0    interpolate to denser k-point grid
   CSHIFT  =0.1000    complex shift for real part using Kramers Kronig
   OMEGAMAX=  -1.0    maximum frequency
   DEG_THRESHOLD= 0.2000000E-02 threshold for treating states as degnerate
   RTIME   =    0.100 relaxation time in fs

 Orbital magnetization related:
   ORBITALMAG=     F  switch on orbital magnetization
   LCHIMAG   =     F  perturbation theory with respect to B field
   DQ        =  0.001000  dq finite difference perturbation B field



--------------------------------------------------------------------------------------------------------


 Static calculation
 charge density and potential remain constant during run
 spin polarized calculation
 Variant of blocked Davidson
 Davidson routine will perform the subspace rotation
 perform sub-space diagonalisation
    after iterative eigenvector-optimisation
 no mixing
 using additional bands           24
 reciprocal scheme for non local part
 use partial core corrections
 calculate Harris-corrections to forces 
   (improved forces if not selfconsistent)
 use gradient corrections 
 WARNING: stress and forces are not correct
  (second derivative of E(xc) not defined)
 use of overlap-Matrix (Vanderbilt PP)
 Fermi weights with tetrahedron method with Bloechl corrections


--------------------------------------------------------------------------------------------------------


  energy-cutoff  :      520.00
  volume of cell :      460.60
      direct lattice vectors                 reciprocal lattice vectors
     0.000000000  2.862395452  0.000000000     0.000000000  0.349357738  0.000000000
    10.424078044  0.000000000 -0.164545371     0.095955643  0.000000000  0.001513927
     0.243611141  0.000000000-15.440551079    -0.001022571  0.000000000 -0.064780661

  length of vectors
     2.862395452 10.425376648 15.442472730     0.349357738  0.095967585  0.064788731


 
 old parameters found on file WAVECAR:
  energy-cutoff  :      520.00
  volume of cell :      460.60
      direct lattice vectors                 reciprocal lattice vectors
     0.000000000  2.862395452  0.000000000     0.000000000  0.349357738  0.000000000
    10.424078044  0.000000000 -0.164545371     0.095955643  0.000000000  0.001513927
     0.243611141  0.000000000-15.440551079    -0.001022571  0.000000000 -0.064780661

  length of vectors

 
 k-points in units of 2pi/SCALE and weight: Automatic mesh                          
   0.00000000  0.00000000  0.00000000       0.017
   0.00000000  0.03493577  0.00000000       0.033
   0.00000000  0.06987155  0.00000000       0.033
   0.00000000  0.10480732  0.00000000       0.033
   0.00000000  0.13974310  0.00000000       0.033
   0.00000000  0.17467887  0.00000000       0.017
   0.03198521  0.00000000  0.00050464       0.033
   0.03198521  0.03493577  0.00050464       0.067
   0.03198521  0.06987155  0.00050464       0.067
   0.03198521  0.10480732  0.00050464       0.067
   0.03198521  0.13974310  0.00050464       0.067
   0.03198521  0.17467887  0.00050464       0.033
  -0.00051129  0.00000000 -0.03239033       0.017
  -0.00051129  0.03493577 -0.03239033       0.033
  -0.00051129  0.06987155 -0.03239033       0.033
  -0.00051129  0.10480732 -0.03239033       0.033
  -0.00051129  0.13974310 -0.03239033       0.033
  -0.00051129  0.17467887 -0.03239033       0.017
   0.03147393  0.00000000 -0.03188569       0.033
   0.03147393  0.03493577 -0.03188569       0.067
   0.03147393  0.06987155 -0.03188569       0.067
   0.03147393  0.10480732 -0.03188569       0.067
   0.03147393  0.13974310 -0.03188569       0.067
   0.03147393  0.17467887 -0.03188569       0.033
 
 k-points in reciprocal lattice and weights: Automatic mesh                          
   0.00000000  0.00000000  0.00000000       0.017
   0.10000000  0.00000000  0.00000000       0.033
   0.20000000  0.00000000  0.00000000       0.033
   0.30000000  0.00000000  0.00000000       0.033
   0.40000000  0.00000000  0.00000000       0.033
   0.50000000  0.00000000  0.00000000       0.017
   0.00000000  0.33333333 -0.00000000       0.033
   0.10000000  0.33333333 -0.00000000       0.067
   0.20000000  0.33333333 -0.00000000       0.067
   0.30000000  0.33333333 -0.00000000       0.067
   0.40000000  0.33333333 -0.00000000       0.067
   0.50000000  0.33333333 -0.00000000       0.033
   0.00000000 -0.00000000  0.50000000       0.017
   0.10000000 -0.00000000  0.50000000       0.033
   0.20000000 -0.00000000  0.50000000       0.033
   0.30000000 -0.00000000  0.50000000       0.033
   0.40000000 -0.00000000  0.50000000       0.033
   0.50000000 -0.00000000  0.50000000       0.017
   0.00000000  0.33333333  0.50000000       0.033
   0.10000000  0.33333333  0.50000000       0.067
   0.20000000  0.33333333  0.50000000       0.067
   0.30000000  0.33333333  0.50000000       0.067
   0.40000000  0.33333333  0.50000000       0.067
   0.50000000  0.33333333  0.50000000       0.033
 
 position of ions in fractional coordinates (direct lattice) 
   0.25000000  0.13218856  0.65589066
   0.25000000  0.11717512  0.32322364
   0.25000000  0.13391544  0.98685919
   0.25000000  0.62682617  0.51009466
   0.25000000  0.63059485  0.18086163
   0.25000000  0.65076630  0.84520234
   0.75000000  0.84795928  0.35038544
   0.75000000  0.86721066  0.01662761
   0.75000000  0.87050080  0.68377301
   0.75000000  0.34129643  0.48276651
   0.75000000  0.36478753  0.14993692
   0.75000000  0.37824879  0.81732390
   0.25000000  0.29295653  0.56287808
   0.25000000  0.29443229  0.22145709
   0.25000000  0.30743305  0.88875487
   0.25000000  0.79475111  0.62531470
   0.25000000  0.78808521  0.27458173
   0.25000000  0.80376623  0.94246039
   0.75000000  0.67488002  0.43255341
   0.75000000  0.69758760  0.10741027
   0.75000000  0.72470144  0.77301531
   0.75000000  0.18360701  0.39362566
   0.75000000  0.20198523  0.05686870
   0.75000000  0.20589868  0.72364929
   0.25000000  0.42383285  0.41587605
   0.25000000  0.44533802  0.08043870
   0.25000000  0.45955543  0.75030892
   0.25000000  0.93493917  0.41031312
   0.25000000  0.94631202  0.08172008
   0.25000000  0.94934101  0.75014002
   0.75000000  0.55831091  0.58308040
   0.75000000  0.54353969  0.24556393
   0.75000000  0.56408753  0.90901673
   0.75000000  0.02622869  0.60720104
   0.75000000  0.04833547  0.25148723
   0.75000000  0.06043986  0.91766808
   0.25000000  0.11236545  0.15741497
   0.25000000  0.12632404  0.82287984
   0.25000000  0.61318603  0.67409797
   0.25000000  0.59032721  0.34580308
   0.25000000  0.61321091  0.01398724
   0.75000000  0.01742392  0.48016370
   0.75000000  0.88865097  0.18480777
   0.75000000  0.90214902  0.85004274
   0.75000000  0.37134124  0.31686170
   0.75000000  0.38829362  0.98520658
   0.75000000  0.39016454  0.64771535
 
 position of ions in cartesian coordinates  (Angst):
   1.53772611  0.71559886-10.14906425
   1.30018342  0.71559886 -5.01003170
   1.63635488  0.71559886-15.25968482
   6.65834966  0.71559886 -7.97928405
   6.61742982  0.71559886 -2.89636475
   6.98953938  0.71559886-13.15747046
   8.92455151  2.14679659 -5.54967199
   9.04392232  2.14679659 -0.39943502
   9.24074305  2.14679659-10.70106891
   3.67530794  2.14679659 -7.51033971
   3.83909995  2.14679659 -2.37513271
   4.14200415  2.14679659-12.68217055
   3.19092515  0.71559886 -8.73935234
   3.12313460  0.71559886 -3.46786693
   3.42121669  0.71559886-13.77345172
   8.43688121  0.71559886 -9.78597615
   8.28195295  0.71559886 -4.36936899
   8.60811575  0.71559886-14.68436381
   7.14037681  2.14679659 -6.78991141
   7.29787395  2.14679659 -1.77325863
   7.74265951  2.14679659-12.05502865
   2.00982538  2.14679659 -6.10800879
   2.11936368  2.14679659 -0.91131977
   2.32259294  2.14679659-11.20742351
   4.51937871  0.71559886 -6.49109517
   4.66183405  0.71559886 -1.31529616
   4.97322527  0.71559886-11.66080094
   9.84583568  0.71559886 -6.48930064
   9.88433822  0.71559886 -1.41751427
  10.07874728  0.71559886-11.73878502
   5.96192133  2.14679659 -9.09495013
   5.72572231  2.14679659 -3.88107942
   6.10153903  2.14679659-14.12853726
   0.42133090  2.14679659 -9.37983456
   0.56511781  2.14679659 -3.89105485
   0.85358400  2.14679659-14.17924601
   1.20965425  0.71559886 -2.44906313
   1.51727436  0.71559886-12.72650424
   6.55611683  0.71559886-10.50934101
   6.23785839  0.71559886 -5.43652570
   6.39556586  0.71559886 -0.31687178
   0.29860149  2.14679659 -7.41685922
   9.30838825  2.14679659 -2.99975717
   9.61115170  2.14679659-13.27357276
   3.94808116  2.14679659 -4.95362181
   4.28761034  2.14679659-15.27602442
   4.22489627  2.14679659-10.06528165
 


--------------------------------------------------------------------------------------------------------


 k-point  1 :   0.0000 0.0000 0.0000  plane waves:   12409
 k-point  2 :   0.1000 0.0000 0.0000  plane waves:   12439
 k-point  3 :   0.2000 0.0000 0.0000  plane waves:   12421
 k-point  4 :   0.3000 0.0000 0.0000  plane waves:   12397
 k-point  5 :   0.4000 0.0000 0.0000  plane waves:   12380
 k-point  6 :   0.5000 0.0000 0.0000  plane waves:   12394
 k-point  7 :   0.0000 0.3333-0.0000  plane waves:   12432
 k-point  8 :   0.1000 0.3333-0.0000  plane waves:   12437
 k-point  9 :   0.2000 0.3333-0.0000  plane waves:   12407
 k-point 10 :   0.3000 0.3333-0.0000  plane waves:   12377
 k-point 11 :   0.4000 0.3333-0.0000  plane waves:   12389
 k-point 12 :   0.5000 0.3333-0.0000  plane waves:   12386
 k-point 13 :   0.0000-0.0000 0.5000  plane waves:   12412
 k-point 14 :   0.1000-0.0000 0.5000  plane waves:   12444
 k-point 15 :   0.2000-0.0000 0.5000  plane waves:   12410
 k-point 16 :   0.3000-0.0000 0.5000  plane waves:   12380
 k-point 17 :   0.4000-0.0000 0.5000  plane waves:   12382
 k-point 18 :   0.5000-0.0000 0.5000  plane waves:   12396
 k-point 19 :   0.0000 0.3333 0.5000  plane waves:   12458
 k-point 20 :   0.1000 0.3333 0.5000  plane waves:   12433
 k-point 21 :   0.2000 0.3333 0.5000  plane waves:   12412
 k-point 22 :   0.3000 0.3333 0.5000  plane waves:   12381
 k-point 23 :   0.4000 0.3333 0.5000  plane waves:   12375
 k-point 24 :   0.5000 0.3333 0.5000  plane waves:   12360

 maximum and minimum number of plane-waves per node :      3137     3087

 maximum number of plane-waves:     12458
 maximum index in each direction: 
   IXMAX=    5   IYMAX=   19   IZMAX=   28
   IXMIN=   -5   IYMIN=  -19   IZMIN=  -29

 WARNING: aliasing errors must be expected set NGX to  22 to avoid them
 WARNING: aliasing errors must be expected set NGY to  78 to avoid them
 WARNING: aliasing errors must be expected set NGZ to 116 to avoid them
 aliasing errors are usually negligible using standard VASP settings
 and one can safely disregard these warnings

 parallel 3D FFT for wavefunctions:
    minimum data exchange during FFTs selected (reduces bandwidth)
 parallel 3D FFT for charge:
    minimum data exchange during FFTs selected (reduces bandwidth)


 total amount of memory used by VASP on root node   114934. kBytes
========================================================================

   base      :      30000. kBytes
   nonl-proj :      34694. kBytes
   fftplans  :       1421. kBytes
   grid      :       3657. kBytes
   one-center:        373. kBytes
   wavefun   :      44789. kBytes
 
 initial charge density was supplied:
 number of electron     239.0000201 magnetization      -2.9999966
 keeping initial charge density in first step


--------------------------------------------------------------------------------------------------------


 Maximum index for augmentation-charges          227 (set IRDMAX)


--------------------------------------------------------------------------------------------------------


 First call to EWALD:  gamma=   0.230
 Maximum number of real-space cells 7x 2x 2
 Maximum number of reciprocal cells 1x 4x 5

 FEWALD executed in parallel
    FEWALD:  cpu time    0.00: real time    0.00


----------------------------------------- Iteration    1(   1)  ---------------------------------------


    POTLOK:  cpu time    0.04: real time    0.05
    SETDIJ:  cpu time    0.01: real time    0.01
     EDDAV:  cpu time   15.57: real time   15.58
 BZINTS: Fermi energy:  3.646206;239.000000 electrons
         Band energy:-707.513161;  BLOECHL correction: -0.000202
       DOS:  cpu time    0.04: real time    0.04
    --------------------------------------------
      LOOP:  cpu time   15.67: real time   15.86

 eigenvalue-minimisations  : 13816
 total energy-change (2. order) :-0.2697423E+03  (-0.2755461E+03)
 number of electron     239.0000201 magnetization      -2.9999966
 augmentation part      239.0000201 magnetization      -2.9999966

 Free energy of the ion-electron system (eV)
  ---------------------------------------------------
  alpha Z        PSCENC =       794.44597321
  Ewald energy   TEWEN  =    -11948.12245380
  -1/2 Hartree   DENC   =     -4640.39728698
  -exchange  EXHF       =         0.00000000
  -V(xc)+E(xc)   XCENC  =       533.25412692
  PAW double counting   =     18989.74871419   -18727.07154078
  entropy T*S    EENTRO =         0.00000000
  eigenvalues    EBANDS =      -707.51316067
  atomic energy  EATOM  =     15435.91337757
  ---------------------------------------------------
  free energy    TOTEN  =      -269.74225035 eV

  energy without entropy =     -269.74225035  energy(sigma->0) =     -269.74225035


--------------------------------------------------------------------------------------------------------




----------------------------------------- Iteration    1(   2)  ---------------------------------------


     EDDAV:  cpu time   20.85: real time   20.87
 BZINTS: Fermi energy:  3.352959;239.000000 electrons
         Band energy:-743.799006;  BLOECHL correction:  0.000000
       DOS:  cpu time    0.01: real time    0.01
    --------------------------------------------
      LOOP:  cpu time   20.87: real time   20.98

 eigenvalue-minimisations  : 20240
 total energy-change (2. order) :-0.3628584E+02  (-0.3609912E+02)
 number of electron     239.0000201 magnetization      -2.9999966
 augmentation part      239.0000201 magnetization      -2.9999966

 Free energy of the ion-electron system (eV)
  ---------------------------------------------------
  alpha Z        PSCENC =       794.44597321
  Ewald energy   TEWEN  =    -11948.12245380
  -1/2 Hartree   DENC   =     -4640.39728698
  -exchange  EXHF       =         0.00000000
  -V(xc)+E(xc)   XCENC  =       533.25412692
  PAW double counting   =     18989.74871419   -18727.07154078
  entropy T*S    EENTRO =         0.00000000
  eigenvalues    EBANDS =      -743.79900555
  atomic energy  EATOM  =     15435.91337757
  ---------------------------------------------------
  free energy    TOTEN  =      -306.02809523 eV

  energy without entropy =     -306.02809523  energy(sigma->0) =     -306.02809523


--------------------------------------------------------------------------------------------------------




----------------------------------------- Iteration    1(   3)  ---------------------------------------


     EDDAV:  cpu time   21.58: real time   21.59
 BZINTS: Fermi energy:  3.230289;239.000000 electrons
         Band energy:-745.374484;  BLOECHL correction:  0.000000
       DOS:  cpu time    0.01: real time    0.01
    --------------------------------------------
      LOOP:  cpu time   21.59: real time   21.71

 eigenvalue-minimisations  : 21216
 total energy-change (2. order) :-0.1575478E+01  (-0.1571829E+01)
 number of electron     239.0000201 magnetization      -2.9999966
 augmentation part      239.0000201 magnetization      -2.9999966

 Free energy of the ion-electron system (eV)
  ---------------------------------------------------
  alpha Z        PSCENC =       794.44597321
  Ewald energy   TEWEN  =    -11948.12245380
  -1/2 Hartree   DENC   =     -4640.39728698
  -exchange  EXHF       =         0.00000000
  -V(xc)+E(xc)   XCENC  =       533.25412692
  PAW double counting   =     18989.74871419   -18727.07154078
  entropy T*S    EENTRO =         0.00000000
  eigenvalues    EBANDS =      -745.37448401
  atomic energy  EATOM  =     15435.91337757
  ---------------------------------------------------
  free energy    TOTEN  =      -307.60357369 eV

  energy without entropy =     -307.60357369  energy(sigma->0) =     -307.60357369


--------------------------------------------------------------------------------------------------------




----------------------------------------- Iteration    1(   4)  ---------------------------------------


     EDDAV:  cpu time   21.81: real time   21.83
 BZINTS: Fermi energy:  3.220759;239.000000 electrons
         Band energy:-745.468938;  BLOECHL correction:  0.000000
       DOS:  cpu time    0.01: real time    0.01
    --------------------------------------------
      LOOP:  cpu time   21.83: real time   22.09

 eigenvalue-minimisations  : 21408
 total energy-change (2. order) :-0.9445355E-01  (-0.9438424E-01)
 number of electron     239.0000201 magnetization      -2.9999966
 augmentation part      239.0000201 magnetization      -2.9999966

 Free energy of the ion-electron system (eV)
  ---------------------------------------------------
  alpha Z        PSCENC =       794.44597321
  Ewald energy   TEWEN  =    -11948.12245380
  -1/2 Hartree   DENC   =     -4640.39728698
  -exchange  EXHF       =         0.00000000
  -V(xc)+E(xc)   XCENC  =       533.25412692
  PAW double counting   =     18989.74871419   -18727.07154078
  entropy T*S    EENTRO =         0.00000000
  eigenvalues    EBANDS =      -745.46893756
  atomic energy  EATOM  =     15435.91337757
  ---------------------------------------------------
  free energy    TOTEN  =      -307.69802724 eV

  energy without entropy =     -307.69802724  energy(sigma->0) =     -307.69802724


--------------------------------------------------------------------------------------------------------




----------------------------------------- Iteration    1(   5)  ---------------------------------------


     EDDAV:  cpu time   21.39: real time   21.40
 BZINTS: Fermi energy:  3.207780;239.000000 electrons
         Band energy:-745.474690;  BLOECHL correction:  0.000000
       DOS:  cpu time    0.01: real time    0.01
    --------------------------------------------
      LOOP:  cpu time   21.40: real time   21.53

 eigenvalue-minimisations  : 20888
 total energy-change (2. order) :-0.5752860E-02  (-0.5750648E-02)
 number of electron     239.0000201 magnetization      -2.9999966
 augmentation part      239.0000201 magnetization      -2.9999966

 Free energy of the ion-electron system (eV)
  ---------------------------------------------------
  alpha Z        PSCENC =       794.44597321
  Ewald energy   TEWEN  =    -11948.12245380
  -1/2 Hartree   DENC   =     -4640.39728698
  -exchange  EXHF       =         0.00000000
  -V(xc)+E(xc)   XCENC  =       533.25412692
  PAW double counting   =     18989.74871419   -18727.07154078
  entropy T*S    EENTRO =         0.00000000
  eigenvalues    EBANDS =      -745.47469042
  atomic energy  EATOM  =     15435.91337757
  ---------------------------------------------------
  free energy    TOTEN  =      -307.70378010 eV

  energy without entropy =     -307.70378010  energy(sigma->0) =     -307.70378010


--------------------------------------------------------------------------------------------------------




----------------------------------------- Iteration    1(   6)  ---------------------------------------


     EDDAV:  cpu time   20.07: real time   20.08
 BZINTS: Fermi energy:  3.219436;239.000000 electrons
         Band energy:-745.475209;  BLOECHL correction:  0.000000
       DOS:  cpu time    0.01: real time    0.01
    --------------------------------------------
      LOOP:  cpu time   20.08: real time   20.32

 eigenvalue-minimisations  : 19264
 total energy-change (2. order) :-0.5181599E-03  (-0.5181169E-03)
 number of electron     239.0000201 magnetization      -2.9999966
 augmentation part      239.0000201 magnetization      -2.9999966

 Free energy of the ion-electron system (eV)
  ---------------------------------------------------
  alpha Z        PSCENC =       794.44597321
  Ewald energy   TEWEN  =    -11948.12245380
  -1/2 Hartree   DENC   =     -4640.39728698
  -exchange  EXHF       =         0.00000000
  -V(xc)+E(xc)   XCENC  =       533.25412692
  PAW double counting   =     18989.74871419   -18727.07154078
  entropy T*S    EENTRO =         0.00000000
  eigenvalues    EBANDS =      -745.47520858
  atomic energy  EATOM  =     15435.91337757
  ---------------------------------------------------
  free energy    TOTEN  =      -307.70429826 eV

  energy without entropy =     -307.70429826  energy(sigma->0) =     -307.70429826


--------------------------------------------------------------------------------------------------------




----------------------------------------- Iteration    1(   7)  ---------------------------------------


     EDDAV:  cpu time   16.20: real time   16.21
 BZINTS: Fermi energy:  3.206033;239.000000 electrons
         Band energy:-745.475242;  BLOECHL correction:  0.000000
       DOS:  cpu time    0.01: real time    0.01
    --------------------------------------------
      LOOP:  cpu time   16.21: real time   16.43

 eigenvalue-minimisations  : 14520
 total energy-change (2. order) :-0.3317287E-04  (-0.3316989E-04)
 number of electron     239.0000201 magnetization      -2.9999966
 augmentation part      239.0000201 magnetization      -2.9999966

 Free energy of the ion-electron system (eV)
  ---------------------------------------------------
  alpha Z        PSCENC =       794.44597321
  Ewald energy   TEWEN  =    -11948.12245380
  -1/2 Hartree   DENC   =     -4640.39728698
  -exchange  EXHF       =         0.00000000
  -V(xc)+E(xc)   XCENC  =       533.25412692
  PAW double counting   =     18989.74871419   -18727.07154078
  entropy T*S    EENTRO =         0.00000000
  eigenvalues    EBANDS =      -745.47524175
  atomic energy  EATOM  =     15435.91337757
  ---------------------------------------------------
  free energy    TOTEN  =      -307.70433143 eV

  energy without entropy =     -307.70433143  energy(sigma->0) =     -307.70433143


--------------------------------------------------------------------------------------------------------




----------------------------------------- Iteration    1(   8)  ---------------------------------------


     EDDAV:  cpu time   13.68: real time   13.69
 BZINTS: Fermi energy:  3.253248;239.000000 electrons
         Band energy:-745.475245;  BLOECHL correction:  0.000000
       DOS:  cpu time    0.01: real time    0.01
    --------------------------------------------
      LOOP:  cpu time   13.69: real time   13.92

 eigenvalue-minimisations  : 11328
 total energy-change (2. order) :-0.3527111E-05  (-0.3526894E-05)
 number of electron     239.0000201 magnetization      -2.9999966
 augmentation part      239.0000201 magnetization      -2.9999966

 Free energy of the ion-electron system (eV)
  ---------------------------------------------------
  alpha Z        PSCENC =       794.44597321
  Ewald energy   TEWEN  =    -11948.12245380
  -1/2 Hartree   DENC   =     -4640.39728698
  -exchange  EXHF       =         0.00000000
  -V(xc)+E(xc)   XCENC  =       533.25412692
  PAW double counting   =     18989.74871419   -18727.07154078
  entropy T*S    EENTRO =         0.00000000
  eigenvalues    EBANDS =      -745.47524528
  atomic energy  EATOM  =     15435.91337757
  ---------------------------------------------------
  free energy    TOTEN  =      -307.70433496 eV

  energy without entropy =     -307.70433496  energy(sigma->0) =     -307.70433496


--------------------------------------------------------------------------------------------------------




 average (electrostatic) potential at core
  the test charge radii are     1.0210  0.7215  0.9748
  (the norm of the test charge is              1.0000)
       1 -47.0695       2 -46.4642       3 -46.8311       4 -46.9511       5 -46.8134
       6 -47.3498       7 -46.5623       8 -46.8559       9 -48.2820      10 -46.7681
      11 -46.7252      12 -46.9637      13 -71.3334      14 -71.1615      15 -71.4448
      16 -71.7077      17 -71.1443      18 -71.4491      19 -71.3016      20 -71.3756
      21 -72.1292      22 -71.0665      23 -71.3486      24 -71.6155      25 -71.1182
      26 -71.1586      27 -71.3979      28 -71.0583      29 -71.3619      30 -71.6914
      31 -71.2064      32 -71.2268      33 -71.6631      34 -72.0861      35 -70.9119
      36 -71.3399      37 -25.3743      38 -25.7914      39 -25.3444      40 -25.3056
      41 -25.6452      42 -25.2488      43 -25.4480      44 -25.6518      45 -25.4223
      46 -25.6504      47 -25.5312
 
 
 
 E-fermi :   3.2532     XC(G=0): -10.6594     alpha+bet :-11.8150


 spin component 1

 k-point   1 :       0.0000    0.0000    0.0000
  band No.  band energies     occupation 
      1     -15.7748      1.00000
      2     -15.3806      1.00000
      3     -15.1958      1.00000
      4     -15.0585      1.00000
      5     -14.9862      1.00000
      6     -14.9085      1.00000
      7     -14.8430      1.00000
      8     -14.7588      1.00000
      9     -14.7059      1.00000
     10     -14.6356      1.00000
     11     -14.5715      1.00000
     12     -14.4646      1.00000
     13     -14.3980      1.00000
     14     -14.2814      1.00000
     15     -14.2306      1.00000
     16     -14.1819      1.00000
     17     -14.1633      1.00000
     18     -14.0466      1.00000
     19     -14.0230      1.00000
     20     -13.9862      1.00000
     21     -13.9033      1.00000
     22     -13.8368      1.00000
     23     -13.8022      1.00000
     24     -13.6973      1.00000
     25      -3.8089      1.00000
     26      -3.6149      1.00000
     27      -3.4726      1.00000
     28      -3.4409      1.00000
     29      -3.2894      1.00000
     30      -3.2765      1.00000
     31      -3.0678      1.00000
     32      -2.7914      1.00000
     33      -2.4938      1.00000
     34      -2.4348      1.00000
     35      -2.3618      1.00000
     36      -2.3009      1.00000
     37      -2.0910      1.00000
     38      -2.0723      1.00000
     39      -2.0416      1.00000
     40      -1.9972      1.00000
     41      -1.8681      1.00000
     42      -1.7839      1.00000
     43      -1.7388      1.00000
     44      -1.6964      1.00000
     45      -1.6447      1.00000
     46      -1.5775      1.00000
     47      -1.4648      1.00000
     48      -1.4609      1.00000
     49      -1.3823      1.00000
     50      -1.3692      1.00000
     51      -1.2491      1.00000
     52      -1.1710      1.00000
     53      -1.1042      1.00000
     54      -0.9711      1.00000
     55      -0.9343      1.00000
     56      -0.8849      1.00000
     57      -0.8422      1.00000
     58      -0.7515      1.00000
     59      -0.6993      1.00000
     60      -0.6952      1.00000
     61      -0.6492      1.00000
     62      -0.6160      1.00000
     63      -0.5481      1.00000
     64      -0.4494      1.00000
     65      -0.3839      1.00000
     66      -0.3428      1.00000
     67      -0.2929      1.00000
     68      -0.2502      1.00000
     69      -0.2437      1.00000
     70      -0.2406      1.00000
     71      -0.1846      1.00000
     72      -0.0859      1.00000
     73      -0.0827      1.00000
     74       0.0310      1.00000
     75       0.0805      1.00000
     76       0.1718      1.00000
     77       0.2470      1.00000
     78       0.3008      1.00000
     79       0.3735      1.00000
     80       0.3985      1.00000
     81       0.4814      1.00000
     82       0.5527      1.00000
     83       0.6375      1.00000
     84       0.6458      1.00000
     85       0.7027      1.00000
     86       0.8828      1.00000
     87       0.9449      1.00000
     88       0.9502      1.00000
     89       1.0024      1.00000
     90       1.0924      1.00000
     91       1.1230      1.00000
     92       1.1585      1.00000
     93       1.1875      1.00000
     94       1.2067      1.00000
     95       1.2228      1.00000
     96       1.2327      1.00000
     97       1.3480      1.00000
     98       1.3646      1.00000
     99       1.4097      1.00000
    100       1.4206      1.00000
    101       1.4944      1.00000
    102       1.5081      1.00000
    103       1.5807      1.00000
    104       1.6392      1.00000
    105       1.6716      1.00000
    106       1.7345      1.00000
    107       1.8476      1.00000
    108       1.9348      1.00000
    109       1.9381      1.00000
    110       1.9880      1.00000
    111       2.0696      1.00000
    112       2.1413      1.00000
    113       2.2785      1.00000
    114       2.3020      1.00000
    115       2.5729      1.00000
    116       2.6719      1.00000
    117       2.9807      1.00000
    118       3.1724      1.00000
    119       3.6120      0.00000
    120       4.3161      0.00000
    121       5.0414      0.00000
    122       5.3250      0.00000
    123       5.3683      0.00000
    124       5.4342      0.00000
    125       5.5176      0.00000
    126       5.6434      0.00000
    127       5.7959      0.00000
    128       6.0611      0.00000
    129       6.1522      0.00000
    130       6.2104      0.00000
    131       6.3399      0.00000
    132       6.4390      0.00000
    133       6.4725      0.00000
    134       6.7174      0.00000
    135       6.7435      0.00000
    136       6.8607      0.00000
    137       6.8848      0.00000
    138       6.9274      0.00000
    139       7.0925      0.00000
    140       7.1395      0.00000
    141       7.1465      0.00000
    142       7.2049      0.00000
    143       7.2203      0.00000
    144       7.3078      0.00000

 k-point   2 :       0.1000    0.0000    0.0000
  band No.  band energies     occupation 
      1     -15.6988      1.00000
      2     -15.3160      1.00000
      3     -15.1220      1.00000
      4     -14.9878      1.00000
      5     -14.9168      1.00000
      6     -14.8422      1.00000
      7     -14.7780      1.00000
      8     -14.6988      1.00000
      9     -14.6406      1.00000
     10     -14.5863      1.00000
     11     -14.5310      1.00000
     12     -14.4329      1.00000
     13     -14.3847      1.00000
     14     -14.2382      1.00000
     15     -14.2278      1.00000
     16     -14.1787      1.00000
     17     -14.1570      1.00000
     18     -14.0422      1.00000
     19     -14.0205      1.00000
     20     -13.9839      1.00000
     21     -13.9003      1.00000
     22     -13.8354      1.00000
     23     -13.8041      1.00000
     24     -13.6965      1.00000
     25      -3.6690      1.00000
     26      -3.4723      1.00000
     27      -3.3316      1.00000
     28      -3.2959      1.00000
     29      -3.1468      1.00000
     30      -3.1379      1.00000
     31      -3.0061      1.00000
     32      -2.7184      1.00000
     33      -2.4180      1.00000
     34      -2.3693      1.00000
     35      -2.3380      1.00000
     36      -2.2507      1.00000
     37      -2.1363      1.00000
     38      -2.0745      1.00000
     39      -2.0480      1.00000
     40      -2.0225      1.00000
     41      -1.8845      1.00000
     42      -1.8565      1.00000
     43      -1.8286      1.00000
     44      -1.7757      1.00000
     45      -1.6609      1.00000
     46      -1.6530      1.00000
     47      -1.5285      1.00000
     48      -1.4904      1.00000
     49      -1.4161      1.00000
     50      -1.3966      1.00000
     51      -1.2727      1.00000
     52      -1.1776      1.00000
     53      -1.1436      1.00000
     54      -1.1238      1.00000
     55      -1.0315      1.00000
     56      -0.9823      1.00000
     57      -0.9106      1.00000
     58      -0.8539      1.00000
     59      -0.8016      1.00000
     60      -0.7259      1.00000
     61      -0.6964      1.00000
     62      -0.5841      1.00000
     63      -0.5528      1.00000
     64      -0.5060      1.00000
     65      -0.4126      1.00000
     66      -0.3962      1.00000
     67      -0.3308      1.00000
     68      -0.3115      1.00000
     69      -0.2891      1.00000
     70      -0.2003      1.00000
     71      -0.1707      1.00000
     72      -0.1482      1.00000
     73      -0.1089      1.00000
     74      -0.0131      1.00000
     75       0.0457      1.00000
     76       0.1472      1.00000
     77       0.2037      1.00000
     78       0.2542      1.00000
     79       0.2764      1.00000
     80       0.3669      1.00000
     81       0.4449      1.00000
     82       0.5191      1.00000
     83       0.5532      1.00000
     84       0.6183      1.00000
     85       0.7301      1.00000
     86       0.7788      1.00000
     87       0.8075      1.00000
     88       0.9020      1.00000
     89       0.9390      1.00000
     90       0.9622      1.00000
     91       1.0203      1.00000
     92       1.0330      1.00000
     93       1.0518      1.00000
     94       1.1233      1.00000
     95       1.1565      1.00000
     96       1.2526      1.00000
     97       1.2907      1.00000
     98       1.3319      1.00000
     99       1.3451      1.00000
    100       1.3891      1.00000
    101       1.4380      1.00000
    102       1.4785      1.00000
    103       1.5289      1.00000
    104       1.6042      1.00000
    105       1.7136      1.00000
    106       1.7333      1.00000
    107       1.7920      1.00000
    108       1.9158      1.00000
    109       1.9441      1.00000
    110       1.9918      1.00000
    111       2.0437      1.00000
    112       2.0811      1.00000
    113       2.2613      1.00000
    114       2.3216      1.00000
    115       2.5807      1.00000
    116       2.6584      1.00000
    117       2.9352      1.00000
    118       3.1168      1.00000
    119       3.6646      0.00000
    120       4.3157      0.00000
    121       4.8384      0.00000
    122       5.0756      0.00000
    123       5.1149      0.00000
    124       5.2103      0.00000
    125       5.2375      0.00000
    126       5.3690      0.00000
    127       5.9546      0.00000
    128       6.1879      0.00000
    129       6.3134      0.00000
    130       6.3636      0.00000
    131       6.4523      0.00000
    132       6.4621      0.00000
    133       6.5526      0.00000
    134       6.6657      0.00000
    135       6.8238      0.00000
    136       6.8508      0.00000
    137       6.8944      0.00000
    138       6.9115      0.00000
    139       7.0789      0.00000
    140       7.0906      0.00000
    141       7.1113      0.00000
    142       7.1562      0.00000
    143       7.2045      0.00000
    144       7.3015      0.00000

 k-point   3 :       0.2000    0.0000    0.0000
  band No.  band energies     occupation 
      1     -15.4913      1.00000
      2     -15.1448      1.00000
      3     -14.9216      1.00000
      4     -14.7960      1.00000
      5     -14.7269      1.00000
      6     -14.6697      1.00000
      7     -14.6010      1.00000
      8     -14.5465      1.00000
      9     -14.4897      1.00000
     10     -14.4517      1.00000
     11     -14.4423      1.00000
     12     -14.3398      1.00000
     13     -14.3125      1.00000
     14     -14.2238      1.00000
     15     -14.1665      1.00000
     16     -14.1390      1.00000
     17     -14.1252      1.00000
     18     -14.0313      1.00000
     19     -14.0170      1.00000
     20     -13.9722      1.00000
     21     -13.8897      1.00000
     22     -13.8342      1.00000
     23     -13.8054      1.00000
     24     -13.6953      1.00000
     25      -3.3022      1.00000
     26      -3.0848      1.00000
     27      -2.9568      1.00000
     28      -2.9055      1.00000
     29      -2.8695      1.00000
     30      -2.7706      1.00000
     31      -2.7387      1.00000
     32      -2.5606      1.00000
     33      -2.3552      1.00000
     34      -2.3418      1.00000
     35      -2.2875      1.00000
     36      -2.1914      1.00000
     37      -2.1514      1.00000
     38      -2.1266      1.00000
     39      -2.0535      1.00000
     40      -2.0301      1.00000
     41      -1.9346      1.00000
     42      -1.9069      1.00000
     43      -1.8920      1.00000
     44      -1.8234      1.00000
     45      -1.7784      1.00000
     46      -1.7353      1.00000
     47      -1.6871      1.00000
     48      -1.5918      1.00000
     49      -1.5407      1.00000
     50      -1.4536      1.00000
     51      -1.4178      1.00000
     52      -1.3706      1.00000
     53      -1.3065      1.00000
     54      -1.2474      1.00000
     55      -1.1859      1.00000
     56      -1.1454      1.00000
     57      -1.0792      1.00000
     58      -1.0477      1.00000
     59      -1.0406      1.00000
     60      -0.9465      1.00000
     61      -0.9217      1.00000
     62      -0.8488      1.00000
     63      -0.7734      1.00000
     64      -0.7504      1.00000
     65      -0.7245      1.00000
     66      -0.5942      1.00000
     67      -0.5206      1.00000
     68      -0.4698      1.00000
     69      -0.3897      1.00000
     70      -0.2870      1.00000
     71      -0.2271      1.00000
     72      -0.1450      1.00000
     73      -0.1253      1.00000
     74      -0.0888      1.00000
     75      -0.0778      1.00000
     76       0.0370      1.00000
     77       0.0806      1.00000
     78       0.1002      1.00000
     79       0.1709      1.00000
     80       0.2486      1.00000
     81       0.2772      1.00000
     82       0.2855      1.00000
     83       0.3890      1.00000
     84       0.4626      1.00000
     85       0.5904      1.00000
     86       0.6285      1.00000
     87       0.6998      1.00000
     88       0.7203      1.00000
     89       0.7734      1.00000
     90       0.8626      1.00000
     91       0.9189      1.00000
     92       0.9552      1.00000
     93       0.9792      1.00000
     94       1.0774      1.00000
     95       1.1058      1.00000
     96       1.1477      1.00000
     97       1.2308      1.00000
     98       1.3007      1.00000
     99       1.3094      1.00000
    100       1.3320      1.00000
    101       1.3809      1.00000
    102       1.4358      1.00000
    103       1.4983      1.00000
    104       1.5520      1.00000
    105       1.6313      1.00000
    106       1.6721      1.00000
    107       1.7217      1.00000
    108       1.7660      1.00000
    109       1.8336      1.00000
    110       1.8836      1.00000
    111       1.9391      1.00000
    112       2.0422      1.00000
    113       2.1947      1.00000
    114       2.3347      1.00000
    115       2.5654      1.00000
    116       2.6281      1.00000
    117       2.7962      1.00000
    118       2.9211      1.00000
    119       3.8217      0.00000
    120       4.2147      0.00000
    121       4.5695      0.00000
    122       4.6586      0.00000
    123       4.7145      0.00000
    124       4.8071      0.00000
    125       4.9006      0.00000
    126       4.9601      0.00000
    127       6.1829      0.00000
    128       6.3744      0.00000
    129       6.4564      0.00000
    130       6.5304      0.00000
    131       6.5615      0.00000
    132       6.5959      0.00000
    133       6.6752      0.00000
    134       6.7434      0.00000
    135       6.7944      0.00000
    136       6.8522      0.00000
    137       6.8850      0.00000
    138       6.9381      0.00000
    139       6.9614      0.00000
    140       6.9977      0.00000
    141       7.0077      0.00000
    142       7.0674      0.00000
    143       7.1556      0.00000
    144       7.2002      0.00000

 k-point   4 :       0.3000    0.0000    0.0000
  band No.  band energies     occupation 
      1     -15.2169      1.00000
      2     -14.9330      1.00000
      3     -14.6593      1.00000
      4     -14.5418      1.00000
      5     -14.4883      1.00000
      6     -14.4678      1.00000
      7     -14.4194      1.00000
      8     -14.3766      1.00000
      9     -14.3555      1.00000
     10     -14.2991      1.00000
     11     -14.2554      1.00000
     12     -14.2307      1.00000
     13     -14.1967      1.00000
     14     -14.1549      1.00000
     15     -14.1305      1.00000
     16     -14.1023      1.00000
     17     -14.0349      1.00000
     18     -14.0154      1.00000
     19     -13.9795      1.00000
     20     -13.9555      1.00000
     21     -13.8699      1.00000
     22     -13.8355      1.00000
     23     -13.7912      1.00000
     24     -13.6958      1.00000
     25      -3.0807      1.00000
     26      -2.7517      1.00000
     27      -2.6846      1.00000
     28      -2.6125      1.00000
     29      -2.6027      1.00000
     30      -2.5051      1.00000
     31      -2.4937      1.00000
     32      -2.3766      1.00000
     33      -2.3525      1.00000
     34      -2.3248      1.00000
     35      -2.2755      1.00000
     36      -2.2429      1.00000
     37      -2.2069      1.00000
     38      -2.1694      1.00000
     39      -2.1326      1.00000
     40      -2.0802      1.00000
     41      -2.0073      1.00000
     42      -1.9763      1.00000
     43      -1.9281      1.00000
     44      -1.8802      1.00000
     45      -1.8542      1.00000
     46      -1.8323      1.00000
     47      -1.7411      1.00000
     48      -1.6835      1.00000
     49      -1.6564      1.00000
     50      -1.5933      1.00000
     51      -1.5351      1.00000
     52      -1.5077      1.00000
     53      -1.4601      1.00000
     54      -1.4385      1.00000
     55      -1.3734      1.00000
     56      -1.2793      1.00000
     57      -1.2109      1.00000
     58      -1.2020      1.00000
     59      -1.1670      1.00000
     60      -1.1117      1.00000
     61      -1.0043      1.00000
     62      -0.9300      1.00000
     63      -0.8882      1.00000
     64      -0.8758      1.00000
     65      -0.8376      1.00000
     66      -0.7790      1.00000
     67      -0.6981      1.00000
     68      -0.6955      1.00000
     69      -0.5997      1.00000
     70      -0.4118      1.00000
     71      -0.4000      1.00000
     72      -0.3342      1.00000
     73      -0.2905      1.00000
     74      -0.2386      1.00000
     75      -0.1968      1.00000
     76      -0.1215      1.00000
     77      -0.0672      1.00000
     78      -0.0200      1.00000
     79       0.0680      1.00000
     80       0.1105      1.00000
     81       0.1720      1.00000
     82       0.3104      1.00000
     83       0.3655      1.00000
     84       0.4225      1.00000
     85       0.4759      1.00000
     86       0.5284      1.00000
     87       0.5473      1.00000
     88       0.6639      1.00000
     89       0.7059      1.00000
     90       0.7359      1.00000
     91       0.7717      1.00000
     92       0.8026      1.00000
     93       0.8816      1.00000
     94       0.9203      1.00000
     95       0.9355      1.00000
     96       1.0118      1.00000
     97       1.0235      1.00000
     98       1.0714      1.00000
     99       1.1670      1.00000
    100       1.1900      1.00000
    101       1.2533      1.00000
    102       1.2893      1.00000
    103       1.2998      1.00000
    104       1.3486      1.00000
    105       1.4235      1.00000
    106       1.4794      1.00000
    107       1.5845      1.00000
    108       1.6219      1.00000
    109       1.6656      1.00000
    110       1.7260      1.00000
    111       1.8048      1.00000
    112       1.9393      1.00000
    113       2.1630      1.00000
    114       2.3154      1.00000
    115       2.4901      1.00000
    116       2.5655      1.00000
    117       2.6547      1.00000
    118       2.7214      1.00000
    119       3.9995      0.00000
    120       4.1590      0.00000
    121       4.5149      0.00000
    122       4.6007      0.00000
    123       4.6239      0.00000
    124       4.7276      0.00000
    125       4.8648      0.00000
    126       4.8834      0.00000
    127       6.1690      0.00000
    128       6.2211      0.00000
    129       6.5221      0.00000
    130       6.5910      0.00000
    131       6.6334      0.00000
    132       6.6750      0.00000
    133       6.7117      0.00000
    134       6.7334      0.00000
    135       6.7615      0.00000
    136       6.8242      0.00000
    137       6.8939      0.00000
    138       6.9198      0.00000
    139       6.9791      0.00000
    140       6.9818      0.00000
    141       7.0326      0.00000
    142       7.0758      0.00000
    143       7.1734      0.00000
    144       7.2178      0.00000

 k-point   5 :       0.4000    0.0000    0.0000
  band No.  band energies     occupation 
      1     -14.9819      1.00000
      2     -14.7695      1.00000
      3     -14.4378      1.00000
      4     -14.4178      1.00000
      5     -14.3262      1.00000
      6     -14.2886      1.00000
      7     -14.2778      1.00000
      8     -14.2437      1.00000
      9     -14.2151      1.00000
     10     -14.1656      1.00000
     11     -14.1504      1.00000
     12     -14.1302      1.00000
     13     -14.1094      1.00000
     14     -14.0999      1.00000
     15     -14.0662      1.00000
     16     -14.0191      1.00000
     17     -13.9693      1.00000
     18     -13.9547      1.00000
     19     -13.9216      1.00000
     20     -13.9152      1.00000
     21     -13.8465      1.00000
     22     -13.8289      1.00000
     23     -13.7686      1.00000
     24     -13.6972      1.00000
     25      -3.2728      1.00000
     26      -3.0630      1.00000
     27      -2.9949      1.00000
     28      -2.9485      1.00000
     29      -2.8190      1.00000
     30      -2.7003      1.00000
     31      -2.6723      1.00000
     32      -2.5571      1.00000
     33      -2.4983      1.00000
     34      -2.4268      1.00000
     35      -2.3610      1.00000
     36      -2.3179      1.00000
     37      -2.2618      1.00000
     38      -2.1737      1.00000
     39      -2.0772      1.00000
     40      -1.9653      1.00000
     41      -1.8586      1.00000
     42      -1.8555      1.00000
     43      -1.7957      1.00000
     44      -1.7552      1.00000
     45      -1.7213      1.00000
     46      -1.6875      1.00000
     47      -1.6273      1.00000
     48      -1.5617      1.00000
     49      -1.5159      1.00000
     50      -1.4653      1.00000
     51      -1.4264      1.00000
     52      -1.3893      1.00000
     53      -1.3233      1.00000
     54      -1.3176      1.00000
     55      -1.2492      1.00000
     56      -1.1946      1.00000
     57      -1.1317      1.00000
     58      -1.1148      1.00000
     59      -1.0724      1.00000
     60      -1.0133      1.00000
     61      -0.9823      1.00000
     62      -0.8926      1.00000
     63      -0.8903      1.00000
     64      -0.7907      1.00000
     65      -0.7828      1.00000
     66      -0.7514      1.00000
     67      -0.7112      1.00000
     68      -0.6513      1.00000
     69      -0.5762      1.00000
     70      -0.5313      1.00000
     71      -0.4372      1.00000
     72      -0.3543      1.00000
     73      -0.3379      1.00000
     74      -0.3157      1.00000
     75      -0.2127      1.00000
     76      -0.1628      1.00000
     77      -0.1521      1.00000
     78      -0.1084      1.00000
     79      -0.0380      1.00000
     80       0.0264      1.00000
     81       0.0367      1.00000
     82       0.1042      1.00000
     83       0.1914      1.00000
     84       0.2178      1.00000
     85       0.2565      1.00000
     86       0.2952      1.00000
     87       0.3113      1.00000
     88       0.4015      1.00000
     89       0.4413      1.00000
     90       0.4883      1.00000
     91       0.5123      1.00000
     92       0.5391      1.00000
     93       0.6026      1.00000
     94       0.6266      1.00000
     95       0.6664      1.00000
     96       0.7989      1.00000
     97       0.8602      1.00000
     98       0.8961      1.00000
     99       0.9168      1.00000
    100       0.9674      1.00000
    101       0.9985      1.00000
    102       1.0710      1.00000
    103       1.0860      1.00000
    104       1.1757      1.00000
    105       1.1913      1.00000
    106       1.3453      1.00000
    107       1.3981      1.00000
    108       1.5030      1.00000
    109       1.5540      1.00000
    110       1.6129      1.00000
    111       1.7808      1.00000
    112       1.9643      1.00000
    113       2.1839      1.00000
    114       2.2573      1.00000
    115       2.4384      1.00000
    116       2.4994      1.00000
    117       2.6400      1.00000
    118       2.7559      1.00000
    119       4.1125      0.00000
    120       4.2843      0.00000
    121       4.6353      0.00000
    122       4.7840      0.00000
    123       4.7965      0.00000
    124       4.9089      0.00000
    125       4.9612      0.00000
    126       5.0164      0.00000
    127       5.9443      0.00000
    128       6.1223      0.00000
    129       6.3864      0.00000
    130       6.4972      0.00000
    131       6.5070      0.00000
    132       6.5790      0.00000
    133       6.6232      0.00000
    134       6.8126      0.00000
    135       6.8380      0.00000
    136       6.9168      0.00000
    137       6.9257      0.00000
    138       7.0299      0.00000
    139       7.0473      0.00000
    140       7.0778      0.00000
    141       7.1049      0.00000
    142       7.1893      0.00000
    143       7.2945      0.00000
    144       7.4028      0.00000

 k-point   6 :       0.5000    0.0000    0.0000
  band No.  band energies     occupation 
      1     -14.8923      1.00000
      2     -14.7106      1.00000
      3     -14.4080      1.00000
      4     -14.3380      1.00000
      5     -14.2570      1.00000
      6     -14.2481      1.00000
      7     -14.2353      1.00000
      8     -14.1657      1.00000
      9     -14.1432      1.00000
     10     -14.1320      1.00000
     11     -14.1111      1.00000
     12     -14.1091      1.00000
     13     -14.0795      1.00000
     14     -14.0756      1.00000
     15     -14.0528      1.00000
     16     -13.9691      1.00000
     17     -13.9484      1.00000
     18     -13.9138      1.00000
     19     -13.8770      1.00000
     20     -13.8647      1.00000
     21     -13.8320      1.00000
     22     -13.7972      1.00000
     23     -13.7911      1.00000
     24     -13.6998      1.00000
     25      -3.3128      1.00000
     26      -3.3091      1.00000
     27      -3.2477      1.00000
     28      -3.1068      1.00000
     29      -3.0364      1.00000
     30      -2.8727      1.00000
     31      -2.8304      1.00000
     32      -2.6445      1.00000
     33      -2.6241      1.00000
     34      -2.5679      1.00000
     35      -2.3405      1.00000
     36      -2.3339      1.00000
     37      -2.2356      1.00000
     38      -2.1451      1.00000
     39      -2.0292      1.00000
     40      -2.0027      1.00000
     41      -1.8426      1.00000
     42      -1.8111      1.00000
     43      -1.7533      1.00000
     44      -1.6530      1.00000
     45      -1.6356      1.00000
     46      -1.5953      1.00000
     47      -1.5406      1.00000
     48      -1.5073      1.00000
     49      -1.4339      1.00000
     50      -1.3780      1.00000
     51      -1.3640      1.00000
     52      -1.3300      1.00000
     53      -1.3109      1.00000
     54      -1.1607      1.00000
     55      -1.1259      1.00000
     56      -1.0717      1.00000
     57      -1.0267      1.00000
     58      -1.0025      1.00000
     59      -0.8629      1.00000
     60      -0.8418      1.00000
     61      -0.8394      1.00000
     62      -0.7731      1.00000
     63      -0.7586      1.00000
     64      -0.7563      1.00000
     65      -0.6501      1.00000
     66      -0.6337      1.00000
     67      -0.6329      1.00000
     68      -0.5132      1.00000
     69      -0.5130      1.00000
     70      -0.4577      1.00000
     71      -0.4283      1.00000
     72      -0.3515      1.00000
     73      -0.3367      1.00000
     74      -0.3166      1.00000
     75      -0.2779      1.00000
     76      -0.2398      1.00000
     77      -0.1586      1.00000
     78      -0.1280      1.00000
     79      -0.1147      1.00000
     80      -0.0249      1.00000
     81      -0.0233      1.00000
     82       0.0066      1.00000
     83       0.0194      1.00000
     84       0.0301      1.00000
     85       0.0560      1.00000
     86       0.1236      1.00000
     87       0.1414      1.00000
     88       0.2375      1.00000
     89       0.2534      1.00000
     90       0.3084      1.00000
     91       0.3167      1.00000
     92       0.3342      1.00000
     93       0.4068      1.00000
     94       0.4450      1.00000
     95       0.5316      1.00000
     96       0.6813      1.00000
     97       0.6855      1.00000
     98       0.7308      1.00000
     99       0.8621      1.00000
    100       0.8728      1.00000
    101       0.8969      1.00000
    102       0.9998      1.00000
    103       1.0386      1.00000
    104       1.0860      1.00000
    105       1.1184      1.00000
    106       1.3117      1.00000
    107       1.3941      1.00000
    108       1.4351      1.00000
    109       1.5279      1.00000
    110       1.5647      1.00000
    111       1.7385      1.00000
    112       2.0486      1.00000
    113       2.2050      1.00000
    114       2.2242      1.00000
    115       2.4371      1.00000
    116       2.4734      1.00000
    117       2.6958      1.00000
    118       2.7729      1.00000
    119       4.1578      0.00000
    120       4.3472      0.00000
    121       4.7159      0.00000
    122       4.8882      0.00000
    123       4.9593      0.00000
    124       4.9714      0.00000
    125       5.0167      0.00000
    126       5.0882      0.00000
    127       5.8522      0.00000
    128       6.0496      0.00000
    129       6.3079      0.00000
    130       6.4077      0.00000
    131       6.4149      0.00000
    132       6.5897      0.00000
    133       6.6200      0.00000
    134       6.8133      0.00000
    135       6.8456      0.00000
    136       6.9238      0.00000
    137       6.9522      0.00000
    138       6.9618      0.00000
    139       7.0546      0.00000
    140       7.0820      0.00000
    141       7.1062      0.00000
    142       7.1553      0.00000
    143       7.2618      0.00000
    144       7.2888      0.00000

 k-point   7 :       0.0000    0.3333   -0.0000
  band No.  band energies     occupation 
      1     -15.7662      1.00000
      2     -15.4139      1.00000
      3     -15.1651      1.00000
      4     -15.0539      1.00000
      5     -14.9896      1.00000
      6     -14.9257      1.00000
      7     -14.8540      1.00000
      8     -14.7823      1.00000
      9     -14.6740      1.00000
     10     -14.6091      1.00000
     11     -14.5530      1.00000
     12     -14.4647      1.00000
     13     -14.3980      1.00000
     14     -14.3243      1.00000
     15     -14.2262      1.00000
     16     -14.1858      1.00000
     17     -14.1573      1.00000
     18     -14.0427      1.00000
     19     -14.0155      1.00000
     20     -13.9843      1.00000
     21     -13.9077      1.00000
     22     -13.8638      1.00000
     23     -13.7832      1.00000
     24     -13.6950      1.00000
     25      -3.8022      1.00000
     26      -3.6133      1.00000
     27      -3.4691      1.00000
     28      -3.4408      1.00000
     29      -3.2887      1.00000
     30      -3.2728      1.00000
     31      -3.0733      1.00000
     32      -2.7932      1.00000
     33      -2.4971      1.00000
     34      -2.4226      1.00000
     35      -2.3607      1.00000
     36      -2.2944      1.00000
     37      -2.1205      1.00000
     38      -2.0737      1.00000
     39      -1.9971      1.00000
     40      -1.9969      1.00000
     41      -1.8509      1.00000
     42      -1.7840      1.00000
     43      -1.7658      1.00000
     44      -1.6960      1.00000
     45      -1.6576      1.00000
     46      -1.5780      1.00000
     47      -1.5550      1.00000
     48      -1.4643      1.00000
     49      -1.3828      1.00000
     50      -1.3587      1.00000
     51      -1.3072      1.00000
     52      -1.1280      1.00000
     53      -1.0300      1.00000
     54      -0.9724      1.00000
[...]
 29        0.004   0.069   0.000   0.074
 30        0.004  -0.002   0.000   0.002
 31       -0.000   0.019   0.000   0.019
 32        0.003  -0.011   0.000  -0.008
 33       -0.003   0.010   0.000   0.006
 34       -0.001  -0.098   0.000  -0.100
 35        0.004   0.058   0.000   0.061
 36       -0.004  -0.059   0.000  -0.062
 37        0.000   0.000   0.000   0.000
 38       -0.000   0.000   0.000  -0.000
 39       -0.001  -0.002   0.000  -0.002
 40        0.001   0.001   0.000   0.001
 41       -0.000   0.000   0.000  -0.000
 42       -0.000  -0.001   0.000  -0.001
 43       -0.000  -0.000   0.000  -0.001
 44        0.000   0.001   0.000   0.001
 45       -0.000  -0.000   0.000  -0.000
 46        0.000   0.000   0.000   0.000
 47        0.000  -0.001   0.000  -0.001
------------------------------------------------
tot       -0.050  -0.171  -2.625  -2.847
 
    CHARGE:  cpu time    0.45: real time    0.45
    FORLOC:  cpu time    0.01: real time    0.00
    FORNL :  cpu time    8.00: real time    8.00
    STRESS:  cpu time    9.50: real time    9.50
    FORCOR:  cpu time    0.05: real time    0.05
    FORHAR:  cpu time    0.01: real time    0.01

  FORCE on cell =-STRESS in cart. coord.  units (eV):
  Direction    XX          YY          ZZ          XY          YZ          ZX
  --------------------------------------------------------------------------------------
  Alpha Z   794.44597   794.44597   794.44597
  Ewald   -4620.51928 -2170.83468 -5156.82346     0.00000    -0.00000   171.07577
  Hartree  1371.98653  2622.11029   634.58633    -0.00000     0.00000    99.57544
  E(xc)   -1156.94549 -1158.66543 -1158.01604     0.00000    -0.00000    -0.12508
  Local    -184.06522 -3757.40711  1151.25290    -0.00000     0.00000  -267.11795
  n-local  -813.68343  -766.73355  -791.07664    -0.00331    -0.00106     1.71079
  augment   542.98736   520.86638   531.82708     0.00000     0.00000    -0.55553
  Kinetic  4060.69564  3908.57800  3989.48406    -0.00956     0.00957    -4.64145
  Fock        0.00000     0.00000     0.00000     0.00000     0.00000     0.00000
  -------------------------------------------------------------------------------------
  Total      -5.09792    -7.64014    -4.31980     0.00000     0.00000    -0.07802
  in kB     -17.73299   -26.57601   -15.02632     0.00000     0.00000    -0.27138
  external pressure =      -19.78 kB  Pullay stress =        0.00 kB


 VOLUME and BASIS-vectors are now :
 -----------------------------------------------------------------------------
  energy-cutoff  :      520.00
  volume of cell :      460.60
      direct lattice vectors                 reciprocal lattice vectors
     0.000000000  2.862395452  0.000000000     0.000000000  0.349357738  0.000000000
    10.424078044  0.000000000 -0.164545371     0.095955643  0.000000000  0.001513927
     0.243611141  0.000000000-15.440551079    -0.001022571  0.000000000 -0.064780661

  length of vectors
     2.862395452 10.425376648 15.442472730     0.349357738  0.095967585  0.064788731


 FORCES acting on ions
    electron-ion (+dipol)            ewald-force                    non-local-force                 convergence-correction
 -----------------------------------------------------------------------------------------------
   -.631E+02 0.165E-13 -.725E+02   0.638E+02 -.293E-13 0.715E+02   -.464E+00 -.126E-19 0.309E+00   -.372E+00 0.158E-12 0.760E+00
   -.340E+02 0.182E-13 0.104E+02   0.336E+02 -.669E-14 -.107E+02   0.342E+00 0.140E-20 0.664E+00   0.339E-01 -.550E-12 -.419E+00
   -.330E+02 0.180E-13 0.380E+01   0.332E+02 -.174E-13 -.368E+01   -.298E+00 -.113E-20 0.213E+00   0.849E-01 -.143E-12 -.374E+00
   -.469E+02 -.317E-14 0.135E+02   0.459E+02 -.825E-14 -.129E+02   0.777E+00 0.514E-19 -.582E+00   0.212E+00 0.365E-14 -.690E-01
   -.212E+02 0.380E-14 0.219E+02   0.216E+02 0.157E-13 -.223E+02   -.237E+00 -.278E-20 0.444E+00   -.133E+00 -.115E-12 -.134E+00
   0.128E+02 0.204E-13 0.881E+01   -.132E+02 -.313E-13 -.105E+02   0.105E+00 0.228E-19 0.114E+01   0.288E+00 0.352E-12 0.497E+00
   0.173E+02 0.340E-13 0.416E+02   -.178E+02 -.182E-14 -.418E+02   0.407E+00 -.126E-19 0.665E+00   0.907E-01 0.155E-12 -.378E+00
   0.212E+02 0.490E-13 0.231E+02   -.213E+02 0.265E-13 -.238E+02   0.325E+00 -.190E-19 0.652E+00   -.125E+00 -.760E-12 0.403E-01
   0.289E+02 0.453E-13 -.625E+02   -.285E+02 0.486E-15 0.629E+02   0.184E+00 -.807E-19 -.934E+00   -.581E+00 0.503E-12 0.615E+00
   0.232E+02 0.381E-13 0.221E+01   -.236E+02 0.142E-13 -.140E+01   0.389E+00 0.241E-19 -.916E+00   -.464E-01 0.515E-12 0.173E+00
   0.254E+02 0.429E-13 0.738E+01   -.258E+02 -.259E-13 -.718E+01   0.319E+00 -.244E-19 0.755E-01   0.549E-01 0.579E-13 -.285E+00
   0.277E+02 0.450E-13 -.224E+02   -.277E+02 -.591E-14 0.225E+02   -.250E+00 0.385E-19 0.271E-01   0.298E+00 0.140E-12 -.113E+00
   0.833E+01 0.840E-13 0.579E+02   -.111E+02 -.849E-15 -.687E+02   0.238E+01 -.172E-20 0.901E+01   0.239E+00 -.693E-13 0.146E+01
   0.446E+02 0.801E-13 0.107E+03   -.520E+02 -.101E-13 -.118E+03   0.660E+01 -.432E-19 0.105E+02   0.646E+00 -.644E-13 0.610E+00
   0.277E+02 0.892E-13 0.825E+02   -.343E+02 0.398E-14 -.936E+02   0.581E+01 -.234E-19 0.104E+02   0.627E+00 0.508E-12 0.513E+00
   0.863E+02 0.757E-13 -.191E+03   -.943E+02 -.122E-13 0.206E+03   0.794E+01 -.484E-19 -.151E+02   0.343E-01 0.601E-12 0.184E+00
   0.106E+02 0.821E-13 -.658E+02   -.153E+02 0.188E-13 0.757E+02   0.418E+01 -.533E-21 -.878E+01   0.350E+00 -.488E-12 -.935E+00
   0.272E+02 0.696E-13 -.578E+02   -.321E+02 -.176E-13 0.673E+02   0.442E+01 -.237E-19 -.863E+01   0.385E+00 0.778E-12 -.666E+00
   -.159E+02 0.144E-12 -.608E+02   0.192E+02 0.837E-14 0.725E+02   -.308E+01 0.135E-19 -.104E+02   -.166E+00 0.418E-13 -.982E+00
   -.219E+02 0.162E-12 -.699E+02   0.272E+02 -.260E-13 0.802E+02   -.459E+01 0.117E-19 -.916E+01   -.525E+00 0.738E-13 -.977E+00
   0.293E+02 0.170E-12 -.518E+02   -.287E+02 0.175E-13 0.584E+02   -.363E+00 0.345E-19 -.644E+01   -.196E+00 0.436E-12 -.482E-02
   -.175E+02 0.149E-12 0.103E+03   0.229E+02 0.118E-13 -.114E+03   -.491E+01 -.395E-19 0.990E+01   -.378E+00 0.956E-13 0.435E+00
   -.308E+02 0.175E-12 0.903E+02   0.370E+02 -.616E-14 -.101E+03   -.567E+01 0.147E-19 0.994E+01   -.338E+00 0.627E-12 0.396E+00
   -.667E+02 0.151E-12 0.669E+02   0.740E+02 -.146E-13 -.775E+02   -.658E+01 0.221E-19 0.932E+01   -.536E+00 -.778E-13 0.102E+01
   -.607E+02 0.337E-13 -.131E+03   0.696E+02 -.643E-14 0.141E+03   -.808E+01 -.175E-18 -.899E+01   -.752E+00 -.666E-13 -.813E+00
   -.546E+02 0.361E-13 -.152E+03   0.622E+02 0.192E-13 0.162E+03   -.686E+01 0.456E-20 -.911E+01   -.592E+00 -.494E-12 -.996E+00
   -.418E+02 0.644E-13 -.172E+03   0.493E+02 0.714E-14 0.183E+03   -.718E+01 -.432E-19 -.102E+02   -.157E+00 -.171E-12 -.441E+00
   -.441E+02 0.433E-13 0.200E+03   0.499E+02 -.358E-13 -.212E+03   -.485E+01 0.189E-20 0.112E+02   -.703E+00 0.657E-13 0.557E+00
   -.569E+02 0.703E-13 0.178E+03   0.650E+02 -.141E-13 -.190E+03   -.731E+01 -.106E-18 0.108E+02   -.610E+00 -.142E-13 0.616E+00
   -.820E+02 0.443E-13 0.167E+03   0.896E+02 -.194E-13 -.177E+03   -.696E+01 -.701E-19 0.100E+02   -.484E+00 -.654E-12 0.480E+00
   0.601E+02 0.140E-12 0.118E+03   -.680E+02 -.844E-14 -.129E+03   0.719E+01 0.992E-19 0.981E+01   0.722E+00 -.324E-13 0.859E+00
   0.634E+02 0.168E-12 0.171E+03   -.718E+02 -.257E-13 -.181E+03   0.781E+01 0.340E-19 0.965E+01   0.513E+00 0.694E-13 0.568E+00
   0.770E+02 0.156E-12 0.161E+03   -.864E+02 0.479E-14 -.172E+03   0.864E+01 -.287E-20 0.103E+02   0.612E+00 -.128E-11 0.611E+00
   0.100E+02 0.158E-12 -.246E+03   -.144E+02 0.114E-13 0.260E+03   0.405E+01 0.122E-20 -.137E+02   0.163E+00 0.165E-12 -.530E-01
   0.447E+02 0.160E-12 -.145E+03   -.513E+02 0.133E-14 0.156E+03   0.596E+01 0.103E-19 -.952E+01   0.484E+00 0.932E-12 -.104E+01
   0.364E+02 0.140E-12 -.150E+03   -.432E+02 0.557E-14 0.160E+03   0.629E+01 -.535E-19 -.954E+01   0.347E+00 -.638E-13 -.839E+00
   0.639E+01 -.914E-15 0.604E+00   -.656E+01 -.122E-14 -.975E+00   0.109E+00 0.156E-21 0.384E+00   0.336E-01 -.951E-15 -.331E-01
   0.354E+01 0.290E-15 -.150E+01   -.347E+01 0.992E-15 0.120E+01   -.561E-01 0.481E-20 0.308E+00   -.110E-01 -.364E-15 -.194E-02
   0.983E+01 -.164E-14 -.344E+01   -.103E+02 -.509E-15 0.378E+01   0.299E+00 0.148E-20 -.388E+00   0.538E-01 -.229E-15 0.528E-01
   0.670E+01 -.336E-16 0.452E-01   -.707E+01 0.436E-14 -.287E+00   0.352E+00 0.440E-22 0.273E+00   0.786E-02 0.357E-15 -.279E-01
   0.726E+01 -.227E-14 -.255E+01   -.767E+01 0.301E-14 0.225E+01   0.400E+00 0.603E-20 0.349E+00   0.110E-01 0.537E-15 -.351E-01
   -.615E+00 -.631E-15 0.129E+02   0.262E+00 -.206E-14 -.126E+02   0.294E+00 0.375E-21 -.309E+00   -.126E-01 -.277E-16 0.249E-01
   -.485E+01 -.116E-14 -.134E+01   0.547E+01 -.289E-14 0.956E+00   -.591E+00 -.150E-21 0.434E+00   -.225E-01 0.390E-15 -.417E-01
   -.745E+01 0.559E-15 0.210E+01   0.803E+01 0.486E-14 -.232E+01   -.507E+00 0.637E-20 0.197E+00   -.466E-01 -.202E-14 0.141E-01
   -.461E+01 0.696E-15 0.419E+01   0.486E+01 0.464E-14 -.413E+01   -.236E+00 0.909E-21 -.362E-01   -.165E-01 0.851E-15 -.224E-01
   -.716E+01 0.244E-15 -.817E+00   0.723E+01 -.114E-15 0.572E+00   -.372E-01 -.133E-20 0.273E+00   -.935E-02 -.123E-14 -.365E-01
   -.547E+01 0.121E-14 -.150E+00   0.580E+01 -.361E-15 0.457E+00   -.380E+00 0.118E-19 -.401E+00   0.346E-01 -.119E-16 0.750E-01
 -----------------------------------------------------------------------------------------------
   -.561E+01 0.297E-11 -.507E+01   -.422E-12 -.146E-12 0.720E-12   0.609E+01 -.369E-18 0.421E+01   -.490E+00 0.123E-11 0.846E+00
 
 
 POSITION                                       TOTAL-FORCE (eV/Angst)
 -----------------------------------------------------------------------------------
      1.53773      0.71560    -10.14906        -0.079708      0.000000      0.095262
      1.30018      0.71560     -5.01003        -0.018862     -0.000000     -0.068333
      1.63635      0.71560    -15.25968         0.000831     -0.000000     -0.043194
      6.65835      0.71560     -7.97928        -0.036603      0.000000      0.004603
      6.61743      0.71560     -2.89636        -0.005790      0.000000     -0.036447
      6.98954      0.71560    -13.15747         0.007608     -0.000000     -0.025921
      8.92455      2.14680     -5.54967        -0.003883     -0.000000      0.017241
      9.04392      2.14680     -0.39944         0.021873      0.000000      0.016979
      9.24074      2.14680    -10.70107        -0.003217      0.000000      0.143459
      3.67531      2.14680     -7.51034        -0.015058      0.000000      0.063089
      3.83910      2.14680     -2.37513        -0.014447      0.000000     -0.003669
      4.14200      2.14680    -12.68217         0.029726      0.000000      0.022599
      3.19093      0.71560     -8.73935        -0.112943      0.000000     -0.275648
      3.12313      0.71560     -3.46787        -0.130507      0.000000     -0.180265
      3.42122      0.71560    -13.77345        -0.150767      0.000000     -0.190188
      8.43688      0.71560     -9.78598        -0.041154      0.000000      0.038237
      8.28195      0.71560     -4.36937        -0.170742     -0.000000      0.182946
      8.60812      0.71560    -14.68436        -0.165565     -0.000000      0.181249
      7.14038      2.14680     -6.78991         0.081118      0.000000      0.237649
      7.29787      2.14680     -1.77326         0.149764      0.000000      0.202888
      7.74266      2.14680    -12.05503         0.078573      0.000000      0.132578
      2.00983      2.14680     -6.10801         0.144876      0.000000     -0.141776
      2.11936      2.14680     -0.91132         0.166902     -0.000000     -0.168015
      2.32259      2.14680    -11.20742         0.202907      0.000000     -0.214265
      4.51938      0.71560     -6.49110         0.126382      0.000000      0.219489
      4.66183      0.71560     -1.31530         0.142847     -0.000000      0.233581
      4.97323      0.71560    -11.66080         0.130751      0.000000      0.244609
      9.84584      0.71560     -6.48930         0.222720      0.000000     -0.292143
      9.88434      0.71560     -1.41751         0.158062      0.000000     -0.254648
     10.07875      0.71560    -11.73879         0.110092     -0.000000     -0.255302
      5.96192      2.14680     -9.09495        -0.068365      0.000000     -0.276493
      5.72572      2.14680     -3.88108        -0.140144      0.000000     -0.207016
      6.10154      2.14680    -14.12854        -0.118312     -0.000000     -0.162704
      0.42133      2.14680     -9.37983        -0.131386      0.000000      0.121995
      0.56512      2.14680     -3.89105        -0.113561     -0.000000      0.296668
      0.85358      2.14680    -14.17925        -0.134744      0.000000      0.284744
      1.20965      0.71560     -2.44906        -0.027032      0.000000     -0.019318
      1.51727      0.71560    -12.72650         0.003429      0.000000      0.009344
      6.55612      0.71560    -10.50934        -0.074122      0.000000      0.008017
      6.23786      0.71560     -5.43653        -0.006625      0.000000      0.003584
      6.39557      0.71560     -0.31687         0.001555      0.000000      0.020810
      0.29860      2.14680     -7.41686        -0.070903      0.000000      0.059748
      9.30839      2.14680     -2.99976         0.013301      0.000000      0.009808
      9.61115      2.14680    -13.27357         0.025227      0.000000     -0.007909
      3.94808      2.14680     -4.95362         0.002955      0.000000      0.000238
      4.28761      2.14680    -15.27602         0.027051      0.000000     -0.009078
      4.22490      2.14680    -10.06528        -0.014110      0.000000     -0.019082
 -----------------------------------------------------------------------------------
    total drift:                               -0.006338      0.000000     -0.012219


--------------------------------------------------------------------------------------------------------



  FREE ENERGIE OF THE ION-ELECTRON SYSTEM (eV)
  ---------------------------------------------------
  free  energy   TOTEN  =      -307.70433496 eV

  energy  without entropy=     -307.70433496  energy(sigma->0) =     -307.70433496
 


--------------------------------------------------------------------------------------------------------


    POTLOK:  cpu time    0.06: real time    0.06


--------------------------------------------------------------------------------------------------------


 writing wavefunctions
     LOOP+:  cpu time  175.42: real time  209.16
    4ORBIT:  cpu time    0.00: real time    0.00
 


 total charge     
 
# of ion     s       p       d       tot
----------------------------------------
  1        0.300   0.411   4.827   5.537
  2        0.305   0.414   4.832   5.551
  3        0.305   0.413   4.839   5.558
  4        0.308   0.409   4.828   5.545
  5        0.306   0.418   4.829   5.553
  6        0.303   0.410   4.821   5.534
  7        0.302   0.413   4.832   5.547
  8        0.304   0.413   4.834   5.551
  9        0.340   0.527   4.820   5.687
 10        0.305   0.414   4.819   5.538
 11        0.305   0.417   4.829   5.551
 12        0.308   0.417   4.836   5.561
 13        1.555   3.465   0.000   5.020
 14        1.558   3.462   0.000   5.019
 15        1.557   3.465   0.000   5.022
 16        1.571   3.404   0.000   4.975
 17        1.557   3.460   0.000   5.018
 18        1.557   3.462   0.000   5.019
 19        1.557   3.478   0.000   5.035
 20        1.556   3.470   0.000   5.026
 21        1.556   3.463   0.000   5.020
 22        1.559   3.466   0.000   5.025
 23        1.559   3.459   0.000   5.019
 24        1.558   3.466   0.000   5.024
 25        1.558   3.462   0.000   5.019
 26        1.555   3.469   0.000   5.024
 27        1.557   3.467   0.000   5.024
 28        1.556   3.479   0.000   5.035
 29        1.558   3.464   0.000   5.022
 30        1.562   3.444   0.000   5.006
 31        1.556   3.472   0.000   5.027
 32        1.558   3.465   0.000   5.023
 33        1.560   3.457   0.000   5.017
 34        1.563   3.459   0.000   5.022
 35        1.555   3.476   0.000   5.031
 36        1.555   3.478   0.000   5.033
 37        0.086   0.175   0.000   0.261
 38        0.086   0.175   0.000   0.261
 39        0.099   0.205   0.000   0.304
 40        0.089   0.185   0.000   0.274
 41        0.086   0.174   0.000   0.260
 42        0.092   0.186   0.000   0.279
 43        0.087   0.177   0.000   0.263
 44        0.091   0.188   0.000   0.279
 45        0.085   0.174   0.000   0.259
 46        0.084   0.172   0.000   0.256
 47        0.087   0.176   0.000   0.262
------------------------------------------------
tot       42.056  90.175  57.948 190.179
 


 magnetization (x)
 
# of ion     s       p       d       tot
----------------------------------------
  1        0.032   0.030   3.784   3.846
  2       -0.040  -0.032  -3.822  -3.895
  3        0.042   0.032   3.831   3.905
  4       -0.048  -0.028  -3.773  -3.849
  5        0.039   0.029   3.767   3.835
  6       -0.039  -0.031  -3.788  -3.859
  7        0.037   0.034   3.816   3.887
  8       -0.040  -0.034  -3.821  -3.895
  9        0.013   0.016   1.156   1.185
 10       -0.039  -0.032  -3.770  -3.842
 11        0.040   0.029   3.773   3.841
 12       -0.042  -0.029  -3.776  -3.846
 13        0.006   0.065   0.000   0.071
 14       -0.006  -0.056   0.000  -0.062
 15        0.007   0.053   0.000   0.060
 16       -0.005  -0.090   0.000  -0.095
 17        0.006  -0.011   0.000  -0.005
 18       -0.006   0.006   0.000  -0.000
 19        0.007   0.061   0.000   0.068
 20       -0.007  -0.061   0.000  -0.068
 21        0.000   0.019   0.000   0.019
 22       -0.006   0.007   0.000   0.001
 23        0.006  -0.019   0.000  -0.013
 24       -0.006  -0.067   0.000  -0.073
 25       -0.002   0.019   0.000   0.017
 26        0.002  -0.010   0.000  -0.008
 27       -0.002   0.009   0.000   0.007
 28       -0.005  -0.064   0.000  -0.069
 29        0.004   0.069   0.000   0.074
 30        0.004  -0.002   0.000   0.002
 31       -0.000   0.019   0.000   0.019
 32        0.003  -0.011   0.000  -0.008
 33       -0.003   0.010   0.000   0.006
 34       -0.001  -0.098   0.000  -0.100
 35        0.004   0.058   0.000   0.061
 36       -0.004  -0.059   0.000  -0.062
 37        0.000   0.000   0.000   0.000
 38       -0.000   0.000   0.000  -0.000
 39       -0.001  -0.002   0.000  -0.002
 40        0.001   0.001   0.000   0.001
 41       -0.000   0.000   0.000  -0.000
 42       -0.000  -0.001   0.000  -0.001
 43       -0.000  -0.000   0.000  -0.001
 44        0.000   0.001   0.000   0.001
 45       -0.000  -0.000   0.000  -0.000
 46        0.000   0.000   0.000   0.000
 47        0.000  -0.001   0.000  -0.001
------------------------------------------------
tot       -0.050  -0.171  -2.625  -2.847
 
 BZINTS: Fermi energy:  3.253248;239.000000 electrons
         Band energy:-745.475245;  BLOECHL correction:  0.000000

 total amount of memory used by VASP on root node   114934. kBytes
========================================================================

   base      :      30000. kBytes
   nonl-proj :      34694. kBytes
   fftplans  :       1421. kBytes
   grid      :       3657. kBytes
   one-center:        373. kBytes
   wavefun   :      44789. kBytes
 
  
  
 General timing and accounting informations for this job:
 ========================================================
  
                  Total CPU time used (sec):      186.898
                            User time (sec):      185.345
                          System time (sec):        1.553
                         Elapsed time (sec):      224.900
  
                   Maximum memory used (kb):      240700.
                   Average memory used (kb):           0.
  
                          Minor page faults:        17301
                          Major page faults:            0
                 Voluntary context switches:         3791
