 vasp.5.3.3 18Dez12 (build May 12 2016 12:04:25) complex                        
  
 executed on             LinuxIFC date 2019.05.07  17:12:47
 running on   16 total cores
 distrk:  each k-point on   16 cores,    1 groups
 distr:  one band on NCORES_PER_BAND=   2 cores,    8 groups


--------------------------------------------------------------------------------------------------------


 INCAR:
 POTCAR:   PAW_PBE O_s 07Sep2000                  
 POTCAR:   PAW_PBE Mn 06Sep2000                   
 POTCAR:   PAW_PBE O_s 07Sep2000                  
  local pseudopotential read in
  atomic valenz-charges read in
  non local Contribution for L=           0  read in
    real space projection operators read in
  non local Contribution for L=           0  read in
    real space projection operators read in
  non local Contribution for L=           1  read in
    real space projection operators read in
  non local Contribution for L=           1  read in
    real space projection operators read in
    PAW grid and wavefunctions read in
 
   number of l-projection  operators is LMAX  =           4
   number of lm-projection operators is LMMAX =           8
 
 POTCAR:   PAW_PBE Mn 06Sep2000                   
  local pseudopotential read in
  partial core-charges read in
  atomic valenz-charges read in
  non local Contribution for L=           2  read in
    real space projection operators read in
  non local Contribution for L=           2  read in
    real space projection operators read in
  non local Contribution for L=           0  read in
    real space projection operators read in
  non local Contribution for L=           0  read in
    real space projection operators read in
  non local Contribution for L=           1  read in
    real space projection operators read in
  non local Contribution for L=           1  read in
    real space projection operators read in
    PAW grid and wavefunctions read in
 
   number of l-projection  operators is LMAX  =           6
   number of lm-projection operators is LMMAX =          18
 

 ----------------------------------------------------------------------------- 
|                                                                             |
|  ADVICE TO THIS USER RUNNING 'VASP/VAMP'   (HEAR YOUR MASTER'S VOICE ...):  |
|                                                                             |
|      You have a (more or less) 'large supercell' and for larger cells       |
|      it might be more efficient to use real space projection operators      |
|      So try LREAL= Auto  in the INCAR   file.                               |
|      Mind: If you want to do a very accurate calculations keep the          |
|      reciprocal projection scheme          (i.e. LREAL=.FALSE.)             |
|                                                                             |
 ----------------------------------------------------------------------------- 

 PAW_PBE O_s 07Sep2000                  :
 energy of atom  1       EATOM= -432.2909
 kinetic energy error for atom=    0.0182 (will be added to EATOM!!)
 PAW_PBE Mn 06Sep2000                   :
 energy of atom  2       EATOM= -416.8732
 kinetic energy error for atom=    0.0155 (will be added to EATOM!!)
 
 
 POSCAR: Mn12 O25  (P1) ~ CONTCAR (VASP)         
  positions in direct lattice
  velocities in cartesian coordinates
  No initial velocities read in
 exchange correlation table for  LEXCH =        8
   RHO(1)=    0.500       N(1)  =     2000
   RHO(2)=  100.500       N(2)  =     4000
 


--------------------------------------------------------------------------------------------------------


 ion  position               nearest neighbor table
   1  0.797  0.000  0.448-  34 1.97  34 1.97  26 2.02
   2  0.203  0.000  0.552-  33 1.97  33 1.97  27 2.02
   3  0.213  0.000  0.220-  32 1.92  32 1.92  28 2.00
   4  0.836  0.000  0.238-  37 1.92  37 1.92  29 2.10
   5  0.845  0.000  0.568-  36 1.97  36 1.97  30 2.02
   6  0.155  0.000  0.432-  35 1.97  35 1.97  31 2.02
   7  0.287  0.500  0.286-  28 1.90  28 1.90  32 2.10
   8  0.297  0.500  0.616-  27 1.97  27 1.97  33 2.02
   9  0.703  0.500  0.384-  26 1.97  26 1.97  34 2.02
  10  0.345  0.500  0.400-  31 1.97  31 1.97  35 2.02
  11  0.655  0.500  0.600-  30 1.97  30 1.97  36 2.02
  12  0.662  0.500  0.279-  29 1.85  29 1.85  37 2.03
  13  0.541  0.000  0.444-  34 1.92  34 1.92  31 1.99
  14  0.459  0.000  0.556-  33 1.92  33 1.92  30 1.99
  15  0.462  0.000  0.213-  32 1.92  32 1.92  29 1.97
  16  0.852  0.000  0.320-  37 1.90  37 1.90  26 1.93
  17  0.165  0.000  0.682-  27 1.99
  18  0.835  0.000  0.654-  36 1.92  36 1.92
  19  0.158  0.000  0.347-  35 1.89  35 1.89  28 1.94
  20  0.044  0.500  0.276-  37 1.90  28 1.92  28 1.92
  21  0.041  0.500  0.613-  27 1.92  27 1.92  36 1.99
  22  0.959  0.500  0.387-  26 1.92  26 1.92  35 1.99
  23  0.335  0.500  0.486-  31 1.92  31 1.92  33 1.99
  24  0.665  0.500  0.514-  30 1.92  30 1.92  34 1.99
  25  0.327  0.500  0.151-  32 2.12
  26  0.835  0.000  0.383-  22 1.92  22 1.92  16 1.93   9 1.97   9 1.97   1 2.02  34 3.02  34 3.02

  27  0.165  0.000  0.617-  21 1.92  21 1.92   8 1.97   8 1.97  17 1.99   2 2.02  33 3.02  33 3.02

  28  0.166  0.000  0.283-   7 1.90   7 1.90  20 1.92  20 1.92  19 1.94   3 2.00  32 3.00  32 3.00

  29  0.633  0.000  0.242-  12 1.85  12 1.85  15 1.97   4 2.10  37 2.97  37 2.97
  30  0.652  0.000  0.556-  24 1.92  24 1.92  11 1.97  11 1.97  14 1.99   5 2.02  36 3.02  36 3.02

  31  0.348  0.000  0.444-  23 1.92  23 1.92  10 1.97  10 1.97  13 1.99   6 2.02  35 3.02  35 3.02

  32  0.339  0.500  0.220-  15 1.92  15 1.92   3 1.92   3 1.92   7 2.10  25 2.12  28 3.00  28 3.00

  33  0.335  0.500  0.551-  14 1.92  14 1.92   2 1.97   2 1.97  23 1.99   8 2.02  27 3.02  27 3.02

  34  0.665  0.500  0.449-  13 1.92  13 1.92   1 1.97   1 1.97  24 1.99   9 2.02  26 3.02  26 3.02

  35  0.152  0.500  0.387-  19 1.89  19 1.89   6 1.97   6 1.97  22 1.99  10 2.02  31 3.02  31 3.02

  36  0.848  0.500  0.613-  18 1.92  18 1.92   5 1.97   5 1.97  21 1.99  11 2.02  30 3.02  30 3.02

  37  0.859  0.500  0.279-  16 1.90  16 1.90  20 1.90   4 1.92   4 1.92  12 2.03  29 2.97  29 2.97

 
  LATTYP: Found a simple orthorhombic cell.
 ALAT       =     2.8540000900
 B/A-ratio  =     3.6117726997
 C/A-ratio  =    10.7273995286
  
  Lattice vectors:
  
 A1 = (   0.0000000000,  -2.8540000900,   0.0000000000)
 A2 = ( -10.3079996100,   0.0000000000,   0.0000000000)
 A3 = (   0.0000000000,   0.0000000000, -30.6159992200)


Analysis of symmetry for initial positions (statically):
=====================================================================
 Subroutine PRICEL returns:
 Original cell was already a primitive cell.
 

 Routine SETGRP: Setting up the symmetry group for a 
 simple orthorhombic supercell.


 Subroutine GETGRP returns: Found  2 space group operations
 (whereof  2 operations were pure point group operations)
 out of a pool of  8 trial point group operations.


The static configuration has the point symmetry C_1h.


Analysis of symmetry for dynamics (positions and initial velocities):
=====================================================================
 Subroutine PRICEL returns:
 Original cell was already a primitive cell.
 

 Routine SETGRP: Setting up the symmetry group for a 
 simple orthorhombic supercell.


 Subroutine GETGRP returns: Found  2 space group operations
 (whereof  2 operations were pure point group operations)
 out of a pool of  8 trial point group operations.


The dynamic configuration has the point symmetry C_1h.


Analysis of constrained symmetry for selective dynamics:
=====================================================================
 Subroutine PRICEL returns:
 Original cell was already a primitive cell.
 

 Routine SETGRP: Setting up the symmetry group for a 
 simple orthorhombic supercell.


 Subroutine GETGRP returns: Found  2 space group operations
 (whereof  2 operations were pure point group operations)
 out of a pool of  8 trial point group operations.


The constrained configuration has the point symmetry C_1h.


Analysis of magnetic symmetry:
=====================================================================

 Subroutine MAGSYM returns: Found  2 space group operations
 (whereof  2 operations were pure point group operations)
 out of a pool of  2 trial space group operations
 (whereof  2 operations were pure point group operations)
 and found also     1 'primitive' translations


The magnetic configuration has the point symmetry C_1h.


 irot  :   1
 --------------------------------------------------------------------
 isymop:   1   0   0
           0   1   0
           0   0   1

 gtrans:     0.0000000     0.0000000     0.0000000

 ptrans:     0.0000000     0.0000000     0.0000000
 rotmap:
 (   1->   1)  (   2->   2)  (   3->   3)  (   4->   4)  (   5->   5) 
 (   6->   6)  (   7->   7)  (   8->   8)  (   9->   9)  (  10->  10) 
 (  11->  11)  (  12->  12)  (  13->  13)  (  14->  14)  (  15->  15) 
 (  16->  16)  (  17->  17)  (  18->  18)  (  19->  19)  (  20->  20) 
 (  21->  21)  (  22->  22)  (  23->  23)  (  24->  24)  (  25->  25) 
 (  26->  26)  (  27->  27)  (  28->  28)  (  29->  29)  (  30->  30) 
 (  31->  31)  (  32->  32)  (  33->  33)  (  34->  34)  (  35->  35) 
 (  36->  36)  (  37->  37) 


 irot  :   2
 --------------------------------------------------------------------
 isymop:   1   0   0
           0  -1   0
           0   0   1

 gtrans:     0.0000000     0.0000000     0.0000000

 ptrans:     0.0000000     0.0000000     0.0000000
 rotmap:
 (   1->   1)  (   2->   2)  (   3->   3)  (   4->   4)  (   5->   5) 
 (   6->   6)  (   7->   7)  (   8->   8)  (   9->   9)  (  10->  10) 
 (  11->  11)  (  12->  12)  (  13->  13)  (  14->  14)  (  15->  15) 
 (  16->  16)  (  17->  17)  (  18->  18)  (  19->  19)  (  20->  20) 
 (  21->  21)  (  22->  22)  (  23->  23)  (  24->  24)  (  25->  25) 
 (  26->  26)  (  27->  27)  (  28->  28)  (  29->  29)  (  30->  30) 
 (  31->  31)  (  32->  32)  (  33->  33)  (  34->  34)  (  35->  35) 
 (  36->  36)  (  37->  37) 
 
 
 KPOINTS: Automatic mesh                          

Automatic generation of k-mesh.
Space group operators:
 irot       det(A)        alpha          n_x          n_y          n_z        tau_x        tau_y        tau_z
    1     1.000000     0.000000     1.000000     0.000000     0.000000     0.000000     0.000000     0.000000
    2    -1.000000   180.000000     0.000000     1.000000     0.000000     0.000000     0.000000     0.000000
 
 Subroutine IBZKPT returns following result:
 ===========================================
 
 Found      2 irreducible k-points:
 
 Following reciprocal coordinates:
            Coordinates               Weight
  0.000000  0.000000  0.000000      1.000000
  0.000000  0.500000  0.000000      1.000000
 
 Following cartesian coordinates:
            Coordinates               Weight
  0.000000  0.000000  0.000000      1.000000
  0.000000  0.175193  0.000000      1.000000
 


--------------------------------------------------------------------------------------------------------




 Dimension of arrays:
   k-points           NKPTS =      2   k-points in BZ     NKDIM =      2   number of bands    NBANDS=    144
   number of dos      NEDOS =    301   number of ions     NIONS =     37
   non local maximal  LDIM  =      6   non local SUM 2l+1 LMDIM =     18
   total plane-waves  NPLWV =  96768
   max r-space proj   IRMAX =      1   max aug-charges    IRDMAX=   4149
   dimension x,y,z NGX =    48 NGY =   14 NGZ =  144
   dimension x,y,z NGXF=    96 NGYF=   28 NGZF=  288
   support grid    NGXF=    96 NGYF=   28 NGZF=  288
   ions per type =              25  12
 NGX,Y,Z   is equivalent  to a cutoff of   7.74,  8.16,  7.82 a.u.
 NGXF,Y,Z  is equivalent  to a cutoff of  15.48, 16.31, 15.64 a.u.


 I would recommend the setting:
   dimension x,y,z NGX =    48 NGY =   13 NGZ =  144
 SYSTEM =  Mn12 O25  (P1) ~ CONTCAR (VASP)         
 POSCAR =  Mn12 O25  (P1) ~ CONTCAR (VASP)         

 Startparameter for this run:
   NWRITE =      1    write-flag & timer
   PREC   = normal    normal or accurate (medium, high low for compatibility)
   ISTART =      0    job   : 0-new  1-cont  2-samecut
   ICHARG =      2    charge: 1-file 2-atom 10-const
   ISPIN  =      2    spin polarized calculation?
   LNONCOLLINEAR =      F non collinear calculations
   LSORBIT =      F    spin-orbit coupling
   INIWAV =      1    electr: 0-lowe 1-rand  2-diag
   LASPH  =      F    aspherical Exc in radial PAW
   METAGGA=      F    non-selfconsistent MetaGGA calc.

 Electronic Relaxation 1
   ENCUT  =  367.7 eV  27.02 Ry    5.20 a.u.  16.12  4.46 47.87*2*pi/ulx,y,z
   ENINI  =  367.7     initial cutoff
   ENAUG  =  500.7 eV  augmentation charge cutoff
   NELM   =     60;   NELMIN=  2; NELMDL= -5     # of ELM steps 
   EDIFF  = 0.1E-03   stopping-criterion for ELM
   LREAL  =      F    real-space projection
   NLSPLINE    = F    spline interpolate recip. space projectors
   LCOMPAT=      F    compatible to vasp.4.4
   GGA_COMPAT  = T    GGA compatible to vasp.4.4-vasp.4.6
   LMAXPAW     = -100 max onsite density
   LMAXMIX     =    4 max onsite mixed and CHGCAR
   VOSKOWN=      1    Vosko Wilk Nusair interpolation
   ROPT   =    0.00000   0.00000
 Ionic relaxation
   EDIFFG = 0.1E-02   stopping-criterion for IOM
   NSW    =    100    number of steps for IOM
   NBLOCK =      1;   KBLOCK =    100    inner block; outer block 
   IBRION =      2    ionic relax: 0-MD 1-quasi-New 2-CG
   NFREE  =      1    steps in history (QN), initial steepest desc. (CG)
   ISIF   =      2    stress and relaxation
   IWAVPR =     11    prediction:  0-non 1-charg 2-wave 3-comb
   ISYM   =      2    0-nonsym 1-usesym 2-fastsym
   LCORR  =      T    Harris-Foulkes like correction to forces

   POTIM  = 0.5000    time-step for ionic-motion
   TEIN   =    0.0    initial temperature
   TEBEG  =    0.0;   TEEND  =   0.0 temperature during run
   SMASS  =  -3.00    Nose mass-parameter (am)
   estimated Nose-frequenzy (Omega)   =  0.10E-29 period in steps =****** mass=  -0.243E-26a.u.
   SCALEE = 1.0000    scale energy and forces
   NPACO  =    256;   APACO  = 16.0  distance and # of slots for P.C.
   PSTRESS=    0.0 pullay stress

  Mass of Ions in am
   POMASS =  16.00 54.94
  Ionic Valenz
   ZVAL   =   6.00  7.00
  Atomic Wigner-Seitz radii
   RWIGS  =  -1.00 -1.00
  virtual crystal weights 
   VCA    =   1.00  1.00
   NELECT =     234.0000    total number of electrons
   NUPDOWN=      -1.0000    fix difference up-down

 DOS related values:
   EMIN   =  10.00;   EMAX   =-10.00  energy-range for DOS
   EFERMI =   0.00
   ISMEAR =     1;   SIGMA  =   0.20  broadening in eV -4-tet -1-fermi 0-gaus

 Electronic relaxation 2 (details)
   IALGO  =     38    algorithm
   LDIAG  =      T    sub-space diagonalisation (order eigenvalues)
   LSUBROT=      T    optimize rotation matrix (better conditioning)
   TURBO    =      0    0=normal 1=particle mesh
   IRESTART =      0    0=no restart 2=restart with 2 vectors
   NREBOOT  =      0    no. of reboots
   NMIN     =      0    reboot dimension
   EREF     =   0.00    reference energy to select bands
   IMIX   =      4    mixing-type and parameters
     AMIX     =   0.40;   BMIX     =  1.00
     AMIX_MAG =   1.60;   BMIX_MAG =  1.00
     AMIN     =   0.10
     WC   =   100.;   INIMIX=   1;  MIXPRE=   1;  MAXMIX= -45

 Intra band minimization:
   WEIMIN = 0.0010     energy-eigenvalue tresh-hold
   EBREAK =  0.17E-06  absolut break condition
   DEPER  =   0.30     relativ break condition  

   TIME   =   0.40     timestep for ELM

  volume/ion in A,a.u.               =      24.34       164.28
  Fermi-wavevector in a.u.,A,eV,Ry     =   1.044611  1.974028 14.846837  1.091212
  Thomas-Fermi vector in A             =   2.179371
 
 Write flags
   LWAVE  =      F    write WAVECAR
   LCHARG =      F    write CHGCAR
   LVTOT  =      F    write LOCPOT, total local potential
   LVHAR  =      F    write LOCPOT, Hartree potential only
   LELF   =      F    write electronic localiz. function (ELF)
   LORBIT =      0    0 simple, 1 ext, 2 COOP (PROOUT)


 Dipole corrections
   LMONO  =      F    monopole corrections only (constant potential shift)
   LDIPOL =      F    correct potential (dipole corrections)
   IDIPOL =      0    1-x, 2-y, 3-z, 4-all directions 
   EPSILON=  1.0000000 bulk dielectric constant

 LDA+U is selected, type is set to LDAUTYPE =  2
   angular momentum for each species LDAUL =    -1    2
   U (eV)           for each species LDAUU =   0.0  3.9
   J (eV)           for each species LDAUJ =   0.0  0.0
 Exchange correlation treatment:
   GGA     =    --    GGA type
   LEXCH   =     8    internal setting for exchange type
   VOSKOWN=      1    Vosko Wilk Nusair interpolation
   LHFCALC =     F    Hartree Fock is set to
   LHFONE  =     F    Hartree Fock one center treatment
   AEXX    =    0.0000 exact exchange contribution

 Linear response parameters
   LEPSILON=     F    determine dielectric tensor
   LRPA    =     F    only Hartree local field effects (RPA)
   LNABLA  =     F    use nabla operator in PAW spheres
   LVEL    =     F    velocity operator in full k-point grid
   LINTERFAST=   F  fast interpolation
   KINTER  =     0    interpolate to denser k-point grid
   CSHIFT  =0.1000    complex shift for real part using Kramers Kronig
   OMEGAMAX=  -1.0    maximum frequency
   DEG_THRESHOLD= 0.2000000E-02 threshold for treating states as degnerate
   RTIME   =    0.100 relaxation time in fs

 Orbital magnetization related:
   ORBITALMAG=     F  switch on orbital magnetization
   LCHIMAG   =     F  perturbation theory with respect to B field
   DQ        =  0.001000  dq finite difference perturbation B field



--------------------------------------------------------------------------------------------------------


 conjugate gradient relaxation of ions
   using selective dynamics as specified on POSCAR
 charge density and potential will be updated during run
 spin polarized calculation
 Variant of blocked Davidson
 Davidson routine will perform the subspace rotation
 perform sub-space diagonalisation
    after iterative eigenvector-optimisation
 modified Broyden-mixing scheme, WC =      100.0
 initial mixing is a Kerker type mixing with AMIX =  0.4000 and BMIX =      1.0000
 Hartree-type preconditioning will be used
 using additional bands           27
 reciprocal scheme for non local part
 use partial core corrections
 calculate Harris-corrections to forces 
   (improved forces if not selfconsistent)
 use gradient corrections 
 use of overlap-Matrix (Vanderbilt PP)
 Methfessel and Paxton  Order N= 1 SIGMA  =   0.20


--------------------------------------------------------------------------------------------------------


  energy-cutoff  :      367.69
  volume of cell :      900.69
      direct lattice vectors                 reciprocal lattice vectors
    10.307999610  0.000000000  0.000000000     0.097012033  0.000000000  0.000000000
     0.000000000  2.854000090  0.000000000     0.000000000  0.350385413  0.000000000
     0.000000000  0.000000000 30.615999220     0.000000000  0.000000000  0.032662661

  length of vectors
    10.307999610  2.854000090 30.615999220     0.097012033  0.350385413  0.032662661


 
 k-points in units of 2pi/SCALE and weight: Automatic mesh                          
   0.00000000  0.00000000  0.00000000       0.500
   0.00000000  0.17519271  0.00000000       0.500
 
 k-points in reciprocal lattice and weights: Automatic mesh                          
   0.00000000  0.00000000  0.00000000       0.500
   0.00000000  0.50000000  0.00000000       0.500
 
 position of ions in fractional coordinates (direct lattice) 
   0.79689997  0.00000000  0.44777989
   0.20310000  0.00000000  0.55222011
   0.21335530  0.00000000  0.22007120
   0.83620989  0.00000000  0.23832373
   0.84490001  0.00000000  0.56838107
   0.15510000  0.00000000  0.43161893
   0.28687143  0.50000000  0.28616431
   0.29690000  0.50000000  0.61612326
   0.70310003  0.50000000  0.38387677
   0.34490001  0.50000000  0.40003771
   0.65509999  0.50000000  0.59996229
   0.66233510  0.50000000  0.27924228
   0.54119998  0.00000000  0.44441304
   0.45879999  0.00000000  0.55558699
   0.46211719  0.00000000  0.21290544
   0.85196650  0.00000000  0.32000628
   0.16509999  0.00000000  0.68221486
   0.83490002  0.00000000  0.65447187
   0.15767126  0.00000000  0.34675759
   0.04357711  0.50000000  0.27646926
   0.04120000  0.50000000  0.61275637
   0.95880002  0.50000000  0.38724363
   0.33489999  0.50000000  0.48612851
   0.66509998  0.50000000  0.51387149
   0.32747001  0.50000000  0.15068001
   0.83469999  0.00000000  0.38293403
   0.16530000  0.00000000  0.61706597
   0.16601177  0.00000000  0.28343239
   0.63260937  0.00000000  0.24186395
   0.65230000  0.00000000  0.55565429
   0.34770000  0.00000000  0.44434568
   0.33859748  0.50000000  0.21968684
   0.33469999  0.50000000  0.55127740
   0.66530001  0.50000000  0.44872263
   0.15230000  0.50000000  0.38731095
   0.84770000  0.50000000  0.61268902
   0.85919493  0.50000000  0.27935278
 
 position of ions in cartesian coordinates  (Angst):
   8.21444458  0.00000000 13.70922876
   2.09355472  0.00000000 16.90677046
   2.19926635  0.00000000  6.73769969
   8.61965122  0.00000000  7.29651913
   8.70922897  0.00000000 17.40155440
   1.59877074  0.00000000 13.21444482
   2.95707059  1.42700004  8.76120629
   3.06044508  1.42700004 18.86322925
   7.24755484  1.42700004 11.75277089
   3.55522917  1.42700004 12.24755422
   6.75277044  1.42700004 18.36844500
   6.82734995  1.42700004  8.54928143
   5.57868918  0.00000000 13.60614929
   4.72931012  0.00000000 17.00985085
   4.76350381  0.00000000  6.51831278
   8.78207035  0.00000000  9.79731202
   1.70185063  0.00000000 20.88668962
   8.60614908  0.00000000 20.03731026
   1.62527529  0.00000000 10.61633010
   0.44919283  1.42700004  8.46438265
   0.42468958  1.42700004 18.76014855
   9.88331023  1.42700004 11.85585067
   3.45214897  1.42700004 14.88331008
   6.85585033  1.42700004 15.73268914
   3.37556074  1.42700004  4.61321907
   8.60408717  0.00000000 11.72390796
   1.70391234  0.00000000 18.89209126
   1.71124926  0.00000000  8.67756583
   6.52093714  0.00000000  7.40490650
   6.72390815  0.00000000 17.01191131
   3.58409146  0.00000000 13.60408699
   3.49026269  1.42700004  6.72593212
   3.45008737  1.42700004 16.87790845
   6.85791224  1.42700004 13.73809169
   1.56990834  1.42700004 11.85791174
   8.73809127  1.42700004 18.75808656
   8.85658100  1.42700004  8.55266449
 


--------------------------------------------------------------------------------------------------------


 k-point  1 :   0.0000 0.0000 0.0000  plane waves:   14531
 k-point  2 :   0.0000 0.5000 0.0000  plane waves:   14284

 maximum and minimum number of plane-waves per node :      7269     7142

 maximum number of plane-waves:     14531
 maximum index in each direction: 
   IXMAX=   16   IYMAX=    4   IZMAX=   47
   IXMIN=  -16   IYMIN=   -4   IZMIN=  -47

 WARNING: aliasing errors must be expected set NGX to  66 to avoid them
 WARNING: aliasing errors must be expected set NGY to  18 to avoid them
 WARNING: aliasing errors must be expected set NGZ to 190 to avoid them
 aliasing errors are usually negligible using standard VASP settings
 and one can safely disregard these warnings

 parallel 3D FFT for wavefunctions:
    minimum data exchange during FFTs selected (reduces bandwidth)
 parallel 3D FFT for charge:
    minimum data exchange during FFTs selected (reduces bandwidth)


 total amount of memory used by VASP on root node    58588. kBytes
========================================================================

   base      :      30000. kBytes
   nonl-proj :       8484. kBytes
   fftplans  :       3122. kBytes
   grid      :       7776. kBytes
   one-center:        590. kBytes
   wavefun   :       8616. kBytes
 
 Broyden mixing: mesh for mixing (old mesh)
   NGX = 33   NGY =  9   NGZ = 95
  (NGX  = 96   NGY  = 28   NGZ  =288)
  gives a total of  28215 points

 initial charge density was supplied:
 charge density of overlapping atoms calculated
 number of electron     234.0000000 magnetization      -0.0000000
 keeping initial charge density in first step


--------------------------------------------------------------------------------------------------------


 Maximum index for augmentation-charges          301 (set IRDMAX)


--------------------------------------------------------------------------------------------------------


 First call to EWALD:  gamma=   0.184
 Maximum number of real-space cells 3x 8x 1
 Maximum number of reciprocal cells 3x 1x 8

 FEWALD executed in parallel
    FEWALD:  cpu time    0.00: real time    0.00


----------------------------------------- Iteration    1(   1)  ---------------------------------------


    POTLOK:  cpu time    0.07: real time    0.08
    SETDIJ:  cpu time    0.01: real time    0.01
     EDDAV:  cpu time    2.57: real time    2.57
       DOS:  cpu time    0.00: real time    0.00
    --------------------------------------------
      LOOP:  cpu time    2.66: real time    2.72

 eigenvalue-minimisations  :  1176
 total energy-change (2. order) : 0.2767203E+04  (-0.8093160E+04)
 number of electron     234.0000000 magnetization      -0.0000000
 augmentation part      234.0000000 magnetization      -0.0000000

 Free energy of the ion-electron system (eV)
  ---------------------------------------------------
  alpha Z        PSCENC =       363.64412534
  Ewald energy   TEWEN  =     95671.34062858
  -1/2 Hartree   DENC   =   -110513.79832554
  -exchange  EXHF       =         0.00000000
  -V(xc)+E(xc)   XCENC  =       552.86653480
  PAW double counting   =     11199.31591812   -11039.47730748
  entropy T*S    EENTRO =         0.02673996
  eigenvalues    EBANDS =       724.17349055
  atomic energy  EATOM  =     15809.11153208
  ---------------------------------------------------
  free energy    TOTEN  =      2767.20333642 eV

  energy without entropy =     2767.17659646  energy(sigma->0) =     2767.19442310


--------------------------------------------------------------------------------------------------------




----------------------------------------- Iteration    1(   2)  ---------------------------------------


     EDDAV:  cpu time    2.56: real time    2.56
       DOS:  cpu time    0.00: real time    0.00
    --------------------------------------------
      LOOP:  cpu time    2.56: real time    2.63

 eigenvalue-minimisations  :  1168
 total energy-change (2. order) :-0.2442383E+04  (-0.2359622E+04)
 number of electron     234.0000000 magnetization      -0.0000000
 augmentation part      234.0000000 magnetization      -0.0000000

 Free energy of the ion-electron system (eV)
  ---------------------------------------------------
  alpha Z        PSCENC =       363.64412534
  Ewald energy   TEWEN  =     95671.34062858
  -1/2 Hartree   DENC   =   -110513.79832554
  -exchange  EXHF       =         0.00000000
  -V(xc)+E(xc)   XCENC  =       552.86653480
  PAW double counting   =     11199.31591812   -11039.47730748
  entropy T*S    EENTRO =        -0.00746312
  eigenvalues    EBANDS =     -1718.17546140
  atomic energy  EATOM  =     15809.11153208
  ---------------------------------------------------
  free energy    TOTEN  =       324.82018139 eV

  energy without entropy =      324.82764451  energy(sigma->0) =      324.82266909


--------------------------------------------------------------------------------------------------------




----------------------------------------- Iteration    1(   3)  ---------------------------------------


     EDDAV:  cpu time    3.43: real time    3.44
       DOS:  cpu time    0.00: real time    0.00
    --------------------------------------------
      LOOP:  cpu time    3.43: real time    3.50

 eigenvalue-minimisations  :  1712
 total energy-change (2. order) :-0.6113054E+03  (-0.5875373E+03)
 number of electron     234.0000000 magnetization      -0.0000000
 augmentation part      234.0000000 magnetization      -0.0000000

 Free energy of the ion-electron system (eV)
  ---------------------------------------------------
  alpha Z        PSCENC =       363.64412534
  Ewald energy   TEWEN  =     95671.34062858
  -1/2 Hartree   DENC   =   -110513.79832554
  -exchange  EXHF       =         0.00000000
  -V(xc)+E(xc)   XCENC  =       552.86653480
  PAW double counting   =     11199.31591812   -11039.47730748
  entropy T*S    EENTRO =         0.03377538
  eigenvalues    EBANDS =     -2329.52207383
  atomic energy  EATOM  =     15809.11153208
  ---------------------------------------------------
  free energy    TOTEN  =      -286.48519254 eV

  energy without entropy =     -286.51896792  energy(sigma->0) =     -286.49645100


--------------------------------------------------------------------------------------------------------




----------------------------------------- Iteration    1(   4)  ---------------------------------------


     EDDAV:  cpu time    3.57: real time    3.57
       DOS:  cpu time    0.00: real time    0.00
    --------------------------------------------
      LOOP:  cpu time    3.57: real time    3.77

 eigenvalue-minimisations  :  1800
 total energy-change (2. order) :-0.5950642E+02  (-0.5814940E+02)
 number of electron     234.0000000 magnetization      -0.0000000
 augmentation part      234.0000000 magnetization      -0.0000000

 Free energy of the ion-electron system (eV)
  ---------------------------------------------------
  alpha Z        PSCENC =       363.64412534
  Ewald energy   TEWEN  =     95671.34062858
  -1/2 Hartree   DENC   =   -110513.79832554
  -exchange  EXHF       =         0.00000000
  -V(xc)+E(xc)   XCENC  =       552.86653480
  PAW double counting   =     11199.31591812   -11039.47730748
  entropy T*S    EENTRO =        -0.11794451
  eigenvalues    EBANDS =     -2388.87677712
  atomic energy  EATOM  =     15809.11153208
  ---------------------------------------------------
  free energy    TOTEN  =      -345.99161572 eV

  energy without entropy =     -345.87367121  energy(sigma->0) =     -345.95230088


--------------------------------------------------------------------------------------------------------




----------------------------------------- Iteration    1(   5)  ---------------------------------------


     EDDAV:  cpu time    3.54: real time    3.54
       DOS:  cpu time    0.00: real time    0.00
    CHARGE:  cpu time    0.11: real time    0.11
    MIXING:  cpu time    0.00: real time    0.00
    --------------------------------------------
      LOOP:  cpu time    3.65: real time    3.86

 eigenvalue-minimisations  :  1776
 total energy-change (2. order) :-0.1592977E+01  (-0.1576358E+01)
 number of electron     233.9999681 magnetization       0.0211339
 augmentation part       64.8620535 magnetization      -0.2081011

 Broyden mixing:
  rms(total) = 0.69228E+01    rms(broyden)= 0.69159E+01
  rms(prec ) = 0.72715E+01
  weight for this iteration     100.00

 Free energy of the ion-electron system (eV)
  ---------------------------------------------------
  alpha Z        PSCENC =       363.64412534
  Ewald energy   TEWEN  =     95671.34062858
  -1/2 Hartree   DENC   =   -110513.79832554
  -exchange  EXHF       =         0.00000000
  -V(xc)+E(xc)   XCENC  =       552.86653480
  PAW double counting   =     11199.31591812   -11039.47730748
  entropy T*S    EENTRO =        -0.12023306
  eigenvalues    EBANDS =     -2390.46746549
  atomic energy  EATOM  =     15809.11153208
  ---------------------------------------------------
  free energy    TOTEN  =      -347.58459265 eV

  energy without entropy =     -347.46435958  energy(sigma->0) =     -347.54451496


--------------------------------------------------------------------------------------------------------




----------------------------------------- Iteration    1(   6)  ---------------------------------------


    POTLOK:  cpu time    0.07: real time    0.07
    SETDIJ:  cpu time    0.01: real time    0.01
     EDDAV:  cpu time    3.95: real time    3.96
       DOS:  cpu time    0.00: real time    0.00
    CHARGE:  cpu time    0.11: real time    0.11
    MIXING:  cpu time    0.00: real time    0.00
    --------------------------------------------
      LOOP:  cpu time    4.16: real time    4.25

 eigenvalue-minimisations  :  2032
 total energy-change (2. order) :-0.4679146E+02  (-0.1830144E+03)
 number of electron     234.0000091 magnetization      -0.0030711
 augmentation part       85.3093034 magnetization       0.4550507

 Broyden mixing:
  rms(total) = 0.12508E+02    rms(broyden)= 0.12505E+02
  rms(prec ) = 0.13605E+02
  weight for this iteration     100.00

 eigenvalues of (default mixing * dielectric matrix)
  average eigenvalue GAMMA=   0.3295
  0.3295

 Free energy of the ion-electron system (eV)
  ---------------------------------------------------
  alpha Z        PSCENC =       363.64412534
  Ewald energy   TEWEN  =     95671.34062858
  -1/2 Hartree   DENC   =   -110341.87887925
  -exchange  EXHF       =         0.00000000
  -V(xc)+E(xc)   XCENC  =       579.73791562
  PAW double counting   =     12028.48243650   -11857.59382436
  entropy T*S    EENTRO =         0.01023799
  eigenvalues    EBANDS =     -2647.23022962
  atomic energy  EATOM  =     15809.11153208
  ---------------------------------------------------
  free energy    TOTEN  =      -394.37605712 eV

  energy without entropy =     -394.38629511  energy(sigma->0) =     -394.37946978


--------------------------------------------------------------------------------------------------------




----------------------------------------- Iteration    1(   7)  ---------------------------------------


    POTLOK:  cpu time    0.08: real time    0.08
    SETDIJ:  cpu time    0.01: real time    0.01
     EDDAV:  cpu time    4.10: real time    4.10
       DOS:  cpu time    0.00: real time    0.00
    CHARGE:  cpu time    0.12: real time    0.12
    MIXING:  cpu time    0.00: real time    0.00
    --------------------------------------------
      LOOP:  cpu time    4.31: real time    4.40

 eigenvalue-minimisations  :  2120
 total energy-change (2. order) : 0.1108714E+03  (-0.1537262E+03)
 number of electron     233.9999794 magnetization      -0.0229806
 augmentation part       69.4010813 magnetization       0.8653275

 Broyden mixing:
  rms(total) = 0.78693E+01    rms(broyden)= 0.78667E+01
  rms(prec ) = 0.10957E+02
  weight for this iteration     100.00

 eigenvalues of (default mixing * dielectric matrix)
  average eigenvalue GAMMA=   0.2128
  0.3207  0.1048

 Free energy of the ion-electron system (eV)
  ---------------------------------------------------
  alpha Z        PSCENC =       363.64412534
  Ewald energy   TEWEN  =     95671.34062858
  -1/2 Hartree   DENC   =   -110810.54326912
  -exchange  EXHF       =         0.00000000
  -V(xc)+E(xc)   XCENC  =       558.84537942
  PAW double counting   =     12071.34211004   -11941.57307432
  entropy T*S    EENTRO =         0.02394516
  eigenvalues    EBANDS =     -2005.69599934
  atomic energy  EATOM  =     15809.11153208
  ---------------------------------------------------
  free energy    TOTEN  =      -283.50462215 eV

  energy without entropy =     -283.52856731  energy(sigma->0) =     -283.51260387


--------------------------------------------------------------------------------------------------------




----------------------------------------- Iteration    1(   8)  ---------------------------------------


    POTLOK:  cpu time    0.07: real time    0.07
    SETDIJ:  cpu time    0.01: real time    0.01
     EDDAV:  cpu time    3.91: real time    3.92
       DOS:  cpu time    0.00: real time    0.00
    CHARGE:  cpu time    0.11: real time    0.11
    MIXING:  cpu time    0.00: real time    0.00
    --------------------------------------------
      LOOP:  cpu time    4.12: real time    4.19

 eigenvalue-minimisations  :  2008
 total energy-change (2. order) : 0.2802405E+02  (-0.4813563E+02)
 number of electron     233.9999756 magnetization       0.0051686
 augmentation part       65.3145410 magnetization      -0.6792405

 Broyden mixing:
  rms(total) = 0.35865E+01    rms(broyden)= 0.35798E+01
  rms(prec ) = 0.37767E+01
  weight for this iteration     100.00

 eigenvalues of (default mixing * dielectric matrix)
  average eigenvalue GAMMA=   0.3274
  0.6391  0.2313  0.1119

 Free energy of the ion-electron system (eV)
  ---------------------------------------------------
  alpha Z        PSCENC =       363.64412534
  Ewald energy   TEWEN  =     95671.34062858
  -1/2 Hartree   DENC   =   -110706.00611882
  -exchange  EXHF       =         0.00000000
  -V(xc)+E(xc)   XCENC  =       557.56931108
  PAW double counting   =     12091.72669919   -11965.37865591
  entropy T*S    EENTRO =         0.00849497
  eigenvalues    EBANDS =     -2077.49659336
  atomic energy  EATOM  =     15809.11153208
  ---------------------------------------------------
  free energy    TOTEN  =      -255.48057685 eV

  energy without entropy =     -255.48907182  energy(sigma->0) =     -255.48340850


--------------------------------------------------------------------------------------------------------




----------------------------------------- Iteration    1(   9)  ---------------------------------------


    POTLOK:  cpu time    0.07: real time    0.07
    SETDIJ:  cpu time    0.01: real time    0.01
     EDDAV:  cpu time    3.68: real time    3.68
       DOS:  cpu time    0.00: real time    0.00
    CHARGE:  cpu time    0.11: real time    0.11
    MIXING:  cpu time    0.00: real time    0.00
    --------------------------------------------
      LOOP:  cpu time    3.88: real time    3.97

 eigenvalue-minimisations  :  1864
 total energy-change (2. order) : 0.1177868E+01  (-0.8957532E+01)
 number of electron     233.9999769 magnetization      -0.0071864
 augmentation part       65.9921864 magnetization       0.0306796

 Broyden mixing:
  rms(total) = 0.28117E+01    rms(broyden)= 0.28104E+01
  rms(prec ) = 0.29269E+01
  weight for this iteration     100.00

 eigenvalues of (default mixing * dielectric matrix)
  average eigenvalue GAMMA=   0.3072
  0.5847  0.2688  0.2688  0.1065

 Free energy of the ion-electron system (eV)
  ---------------------------------------------------
  alpha Z        PSCENC =       363.64412534
  Ewald energy   TEWEN  =     95671.34062858
  -1/2 Hartree   DENC   =   -110614.83533582
  -exchange  EXHF       =         0.00000000
  -V(xc)+E(xc)   XCENC  =       560.08881132
  PAW double counting   =     12205.51350882   -12078.01931035
  entropy T*S    EENTRO =         0.00664814
  eigenvalues    EBANDS =     -2171.15331665
  atomic energy  EATOM  =     15809.11153208
  ---------------------------------------------------
  free energy    TOTEN  =      -254.30270853 eV

  energy without entropy =     -254.30935667  energy(sigma->0) =     -254.30492458


--------------------------------------------------------------------------------------------------------




----------------------------------------- Iteration    1(  10)  ---------------------------------------


    POTLOK:  cpu time    0.07: real time    0.07
    SETDIJ:  cpu time    0.01: real time    0.01
     EDDAV:  cpu time    3.60: real time    3.60
       DOS:  cpu time    0.00: real time    0.00
    CHARGE:  cpu time    0.11: real time    0.11
    MIXING:  cpu time    0.00: real time    0.00
    --------------------------------------------
      LOOP:  cpu time    3.80: real time    3.99

 eigenvalue-minimisations  :  1816
 total energy-change (2. order) : 0.6262059E+00  (-0.1352016E+01)
 number of electron     233.9999765 magnetization      -0.0046571
 augmentation part       65.9460497 magnetization      -0.3828882

 Broyden mixing:
  rms(total) = 0.25568E+01    rms(broyden)= 0.25562E+01
  rms(prec ) = 0.27393E+01
  weight for this iteration     100.00

 eigenvalues of (default mixing * dielectric matrix)
  average eigenvalue GAMMA=   0.3046
  0.4960  0.3803  0.3803  0.1121  0.1544

 Free energy of the ion-electron system (eV)
  ---------------------------------------------------
  alpha Z        PSCENC =       363.64412534
  Ewald energy   TEWEN  =     95671.34062858
  -1/2 Hartree   DENC   =   -110620.10020814
  -exchange  EXHF       =         0.00000000
  -V(xc)+E(xc)   XCENC  =       561.38750837
  PAW double counting   =     12243.55122394   -12115.54927505
  entropy T*S    EENTRO =        -0.00547034
  eigenvalues    EBANDS =     -2167.05656738
  atomic energy  EATOM  =     15809.11153208
  ---------------------------------------------------
  free energy    TOTEN  =      -253.67650259 eV

  energy without entropy =     -253.67103225  energy(sigma->0) =     -253.67467914


--------------------------------------------------------------------------------------------------------




----------------------------------------- Iteration    1(  11)  ---------------------------------------


    POTLOK:  cpu time    0.07: real time    0.07
    SETDIJ:  cpu time    0.01: real time    0.01
     EDDAV:  cpu time    4.13: real time    4.14
       DOS:  cpu time    0.00: real time    0.00
    CHARGE:  cpu time    0.11: real time    0.11
    MIXING:  cpu time    0.00: real time    0.00
    --------------------------------------------
      LOOP:  cpu time    4.34: real time    4.42

 eigenvalue-minimisations  :  2144
 total energy-change (2. order) : 0.1240255E+01  (-0.1186024E+01)
 number of electron     233.9999778 magnetization       0.0027521
 augmentation part       66.5013104 magnetization      -0.0979815

 Broyden mixing:
  rms(total) = 0.22356E+01    rms(broyden)= 0.22349E+01
  rms(prec ) = 0.23193E+01
  weight for this iteration     100.00

 eigenvalues of (default mixing * dielectric matrix)
  average eigenvalue GAMMA=   0.3263
  0.5009  0.5009  0.4939  0.2222  0.1121  0.1278

 Free energy of the ion-electron system (eV)
  ---------------------------------------------------
  alpha Z        PSCENC =       363.64412534
  Ewald energy   TEWEN  =     95671.34062858
  -1/2 Hartree   DENC   =   -110583.32300266
  -exchange  EXHF       =         0.00000000
  -V(xc)+E(xc)   XCENC  =       563.03903551
  PAW double counting   =     12290.68550978   -12162.24002809
  entropy T*S    EENTRO =         0.02404407
  eigenvalues    EBANDS =     -2204.71809173
  atomic energy  EATOM  =     15809.11153208
  ---------------------------------------------------
  free energy    TOTEN  =      -252.43624712 eV

  energy without entropy =     -252.46029119  energy(sigma->0) =     -252.44426181


--------------------------------------------------------------------------------------------------------




----------------------------------------- Iteration    1(  12)  ---------------------------------------


    POTLOK:  cpu time    0.07: real time    0.08
    SETDIJ:  cpu time    0.01: real time    0.01
     EDDAV:  cpu time    4.03: real time    4.03
       DOS:  cpu time    0.00: real time    0.00
    CHARGE:  cpu time    0.11: real time    0.11
    MIXING:  cpu time    0.00: real time    0.00
    --------------------------------------------
      LOOP:  cpu time    4.24: real time    4.32

 eigenvalue-minimisations  :  2080
 total energy-change (2. order) : 0.7514836E+00  (-0.9388785E-01)
 number of electron     233.9999784 magnetization       0.0434470
 augmentation part       66.7488793 magnetization      -0.1173207

 Broyden mixing:
  rms(total) = 0.19684E+01    rms(broyden)= 0.19683E+01
  rms(prec ) = 0.20426E+01
  weight for this iteration     100.00

 eigenvalues of (default mixing * dielectric matrix)
  average eigenvalue GAMMA=   0.4797
  0.9492  0.9492  0.4496  0.4496  0.3109  0.1121  0.1374

 Free energy of the ion-electron system (eV)
  ---------------------------------------------------
  alpha Z        PSCENC =       363.64412534
  Ewald energy   TEWEN  =     95671.34062858
  -1/2 Hartree   DENC   =   -110575.40107079
  -exchange  EXHF       =         0.00000000
  -V(xc)+E(xc)   XCENC  =       564.66473930
  PAW double counting   =     12325.88676462   -12196.61849103
  entropy T*S    EENTRO =         0.01943356
  eigenvalues    EBANDS =     -2214.33242518
  atomic energy  EATOM  =     15809.11153208
  ---------------------------------------------------
  free energy    TOTEN  =      -251.68476351 eV

  energy without entropy =     -251.70419707  energy(sigma->0) =     -251.69124136


--------------------------------------------------------------------------------------------------------




----------------------------------------- Iteration    1(  13)  ---------------------------------------


    POTLOK:  cpu time    0.07: real time    0.08
    SETDIJ:  cpu time    0.01: real time    0.01
     EDDAV:  cpu time    3.90: real time    3.90
       DOS:  cpu time    0.00: real time    0.00
    CHARGE:  cpu time    0.11: real time    0.11
    MIXING:  cpu time    0.00: real time    0.00
    --------------------------------------------
      LOOP:  cpu time    4.11: real time    4.18

 eigenvalue-minimisations  :  2000
 total energy-change (2. order) : 0.1770993E+01  (-0.4198214E+00)
 number of electron     233.9999778 magnetization       0.0824630
 augmentation part       67.5576683 magnetization      -0.5034732

 Broyden mixing:
  rms(total) = 0.14914E+01    rms(broyden)= 0.14902E+01
  rms(prec ) = 0.15701E+01
  weight for this iteration     100.00

 eigenvalues of (default mixing * dielectric matrix)
  average eigenvalue GAMMA=   0.4853
  1.0916  1.0916  0.4692  0.4692  0.3143  0.1123  0.1350  0.1991

 Free energy of the ion-electron system (eV)
  ---------------------------------------------------
  alpha Z        PSCENC =       363.64412534
  Ewald energy   TEWEN  =     95671.34062858
  -1/2 Hartree   DENC   =   -110553.34452059
  -exchange  EXHF       =         0.00000000
  -V(xc)+E(xc)   XCENC  =       570.46125787
  PAW double counting   =     12440.62606228   -12309.31583261
  entropy T*S    EENTRO =        -0.03226153
  eigenvalues    EBANDS =     -2242.40476146
  atomic energy  EATOM  =     15809.11153208
  ---------------------------------------------------
  free energy    TOTEN  =      -249.91377003 eV

  energy without entropy =     -249.88150850  energy(sigma->0) =     -249.90301619


--------------------------------------------------------------------------------------------------------




----------------------------------------- Iteration    1(  14)  ---------------------------------------


    POTLOK:  cpu time    0.08: real time    0.09
    SETDIJ:  cpu time    0.01: real time    0.01
     EDDAV:  cpu time    3.99: real time    3.99
       DOS:  cpu time    0.00: real time    0.00
    CHARGE:  cpu time    0.11: real time    0.11
    MIXING:  cpu time    0.00: real time    0.00
    --------------------------------------------
      LOOP:  cpu time    4.20: real time    4.29

 eigenvalue-minimisations  :  2056
 total energy-change (2. order) : 0.3991596E+00  (-0.2844839E+00)
 number of electron     233.9999788 magnetization       0.0806591
 augmentation part       68.0001026 magnetization      -0.5379645

 Broyden mixing:
  rms(total) = 0.10862E+01    rms(broyden)= 0.10851E+01
  rms(prec ) = 0.11052E+01
  weight for this iteration     100.00

 eigenvalues of (default mixing * dielectric matrix)
  average eigenvalue GAMMA=   0.4494
  1.0908  1.0908  0.4724  0.4724  0.3114  0.2182  0.1122  0.1358  0.1405

 Free energy of the ion-electron system (eV)
  ---------------------------------------------------
  alpha Z        PSCENC =       363.64412534
  Ewald energy   TEWEN  =     95671.34062858
  -1/2 Hartree   DENC   =   -110532.19223883
  -exchange  EXHF       =         0.00000000
  -V(xc)+E(xc)   XCENC  =       573.20681159
  PAW double counting   =     12501.59678099   -12369.97539531
  entropy T*S    EENTRO =        -0.02196168
  eigenvalues    EBANDS =     -2266.22489318
  atomic energy  EATOM  =     15809.11153208
  ---------------------------------------------------
  free energy    TOTEN  =      -249.51461040 eV

  energy without entropy =     -249.49264872  energy(sigma->0) =     -249.50728984


--------------------------------------------------------------------------------------------------------




----------------------------------------- Iteration    1(  15)  ---------------------------------------


    POTLOK:  cpu time    0.07: real time    0.07
    SETDIJ:  cpu time    0.01: real time    0.01
     EDDAV:  cpu time    3.00: real time    3.01
       DOS:  cpu time    0.00: real time    0.00
    CHARGE:  cpu time    0.11: real time    0.11
    MIXING:  cpu time    0.00: real time    0.00
    --------------------------------------------
      LOOP:  cpu time    3.21: real time    3.28

 eigenvalue-minimisations  :  1448
 total energy-change (2. order) : 0.8162249E-02  (-0.3296208E-01)
 number of electron     233.9999789 magnetization       0.0829246
 augmentation part       67.9992554 magnetization      -0.5845502

 Broyden mixing:
  rms(total) = 0.10873E+01    rms(broyden)= 0.10873E+01
  rms(prec ) = 0.11067E+01
  weight for this iteration     100.00

 eigenvalues of (default mixing * dielectric matrix)
  average eigenvalue GAMMA=   0.4776
  1.1609  1.1609  0.4826  0.4826  0.3489  0.3489  0.3083  0.2347  0.1122  0.1359

 Free energy of the ion-electron system (eV)
  ---------------------------------------------------
  alpha Z        PSCENC =       363.64412534
  Ewald energy   TEWEN  =     95671.34062858
  -1/2 Hartree   DENC   =   -110531.55308682
  -exchange  EXHF       =         0.00000000
  -V(xc)+E(xc)   XCENC  =       573.19690451
  PAW double counting   =     12500.92210316   -12369.25471561
  entropy T*S    EENTRO =        -0.02721735
  eigenvalues    EBANDS =     -2266.88672205
  atomic energy  EATOM  =     15809.11153208
  ---------------------------------------------------
  free energy    TOTEN  =      -249.50644815 eV

  energy without entropy =     -249.47923081  energy(sigma->0) =     -249.49737571


--------------------------------------------------------------------------------------------------------




----------------------------------------- Iteration    1(  16)  ---------------------------------------


    POTLOK:  cpu time    0.07: real time    0.07
    SETDIJ:  cpu time    0.01: real time    0.01
     EDDAV:  cpu time    3.91: real time    3.92
       DOS:  cpu time    0.00: real time    0.00
    CHARGE:  cpu time    0.11: real time    0.11
    MIXING:  cpu time    0.00: real time    0.00
    --------------------------------------------
      LOOP:  cpu time    4.12: real time    4.24

 eigenvalue-minimisations  :  2008
 total energy-change (2. order) : 0.2663297E+00  (-0.4151429E-01)
 number of electron     233.9999796 magnetization       0.0903842
 augmentation part       68.1646664 magnetization      -0.6617627

 Broyden mixing:
  rms(total) = 0.10335E+01    rms(broyden)= 0.10334E+01
  rms(prec ) = 0.10509E+01
  weight for this iteration     100.00

 eigenvalues of (default mixing * dielectric matrix)
  average eigenvalue GAMMA=   0.5095
  1.2013  1.2013  0.5875  0.5875  0.4933  0.4933  0.3188  0.2742  0.1122  0.1359
  0.1992

 Free energy of the ion-electron system (eV)
  ---------------------------------------------------
  alpha Z        PSCENC =       363.64412534
  Ewald energy   TEWEN  =     95671.34062858
  -1/2 Hartree   DENC   =   -110529.47064119
  -exchange  EXHF       =         0.00000000
  -V(xc)+E(xc)   XCENC  =       574.75785890
  PAW double counting   =     12532.48064640   -12401.45595715
  entropy T*S    EENTRO =        -0.01962543
  eigenvalues    EBANDS =     -2269.62868595
  atomic energy  EATOM  =     15809.11153208
  ---------------------------------------------------
  free energy    TOTEN  =      -249.24011842 eV

  energy without entropy =     -249.22049299  energy(sigma->0) =     -249.23357661


--------------------------------------------------------------------------------------------------------




----------------------------------------- Iteration    1(  17)  ---------------------------------------


    POTLOK:  cpu time    0.07: real time    0.07
    SETDIJ:  cpu time    0.01: real time    0.01
     EDDAV:  cpu time    3.96: real time    3.96
       DOS:  cpu time    0.00: real time    0.00
    CHARGE:  cpu time    0.11: real time    0.11
    MIXING:  cpu time    0.00: real time    0.00
    --------------------------------------------
      LOOP:  cpu time    4.17: real time    4.26

 eigenvalue-minimisations  :  2040
 total energy-change (2. order) : 0.4569344E+00  (-0.7571008E-01)
 number of electron     233.9999790 magnetization       0.1006685
 augmentation part       68.2781564 magnetization      -0.7660167

 Broyden mixing:
  rms(total) = 0.94487E+00    rms(broyden)= 0.94466E+00
  rms(prec ) = 0.97671E+00
  weight for this iteration     100.00

 eigenvalues of (default mixing * dielectric matrix)
  average eigenvalue GAMMA=   0.5723
  1.3711  1.3711  0.8477  0.8477  0.4602  0.4602  0.3797  0.3797  0.2965  0.1122
  0.1359  0.2060

 Free energy of the ion-electron system (eV)
  ---------------------------------------------------
  alpha Z        PSCENC =       363.64412534
  Ewald energy   TEWEN  =     95671.34062858
  -1/2 Hartree   DENC   =   -110539.20614174
  -exchange  EXHF       =         0.00000000
  -V(xc)+E(xc)   XCENC  =       576.77528345
  PAW double counting   =     12570.76804306   -12440.30450871
  entropy T*S    EENTRO =         0.00744771
  eigenvalues    EBANDS =     -2260.91959383
  atomic energy  EATOM  =     15809.11153208
  ---------------------------------------------------
  free energy    TOTEN  =      -248.78318405 eV

  energy without entropy =     -248.79063176  energy(sigma->0) =     -248.78566662


--------------------------------------------------------------------------------------------------------




----------------------------------------- Iteration    1(  18)  ---------------------------------------


    POTLOK:  cpu time    0.07: real time    0.07
    SETDIJ:  cpu time    0.01: real time    0.01
     EDDAV:  cpu time    3.71: real time    3.72
       DOS:  cpu time    0.00: real time    0.00
    CHARGE:  cpu time    0.11: real time    0.11
    MIXING:  cpu time    0.00: real time    0.00
    --------------------------------------------
      LOOP:  cpu time    3.92: real time    4.01

 eigenvalue-minimisations  :  1888
 total energy-change (2. order) : 0.4499950E+00  (-0.1051144E+00)
 number of electron     233.9999803 magnetization       0.1183227
 augmentation part       68.2254270 magnetization      -0.1621809

 Broyden mixing:
  rms(total) = 0.57952E+00    rms(broyden)= 0.57818E+00
  rms(prec ) = 0.60116E+00
  weight for this iteration     100.00

 eigenvalues of (default mixing * dielectric matrix)
  average eigenvalue GAMMA=   0.5757
  1.3897  1.3897  0.8882  0.8882  0.5075  0.5075  0.3891  0.3891  0.3926  0.2910
  0.1122  0.1359  0.2034

 Free energy of the ion-electron system (eV)
  ---------------------------------------------------
  alpha Z        PSCENC =       363.64412534
  Ewald energy   TEWEN  =     95671.34062858
  -1/2 Hartree   DENC   =   -110567.83545976
  -exchange  EXHF       =         0.00000000
  -V(xc)+E(xc)   XCENC  =       579.11403369
  PAW double counting   =     12621.97686407   -12493.17345247
  entropy T*S    EENTRO =        -0.02149783
  eigenvalues    EBANDS =     -2232.48996275
  atomic energy  EATOM  =     15809.11153208
  ---------------------------------------------------
  free energy    TOTEN  =      -248.33318904 eV

  energy without entropy =     -248.31169121  energy(sigma->0) =     -248.32602310


--------------------------------------------------------------------------------------------------------




----------------------------------------- Iteration    1(  19)  ---------------------------------------


    POTLOK:  cpu time    0.07: real time    0.07
    SETDIJ:  cpu time    0.01: real time    0.01
     EDDAV:  cpu time    3.87: real time    3.87
       DOS:  cpu time    0.00: real time    0.00
    CHARGE:  cpu time    0.11: real time    0.11
    MIXING:  cpu time    0.00: real time    0.00
    --------------------------------------------
      LOOP:  cpu time    4.08: real time    4.29

 eigenvalue-minimisations  :  1984
 total energy-change (2. order) :-0.6586104E+00  (-0.1559716E+00)
 number of electron     233.9999792 magnetization       0.1683381
 augmentation part       68.5389162 magnetization      -1.0050019

 Broyden mixing:
  rms(total) = 0.89258E+00    rms(broyden)= 0.89146E+00
  rms(prec ) = 0.95287E+00
  weight for this iteration     100.00

 eigenvalues of (default mixing * dielectric matrix)
  average eigenvalue GAMMA=   0.6068
  1.6096  1.6096  0.8186  0.8186  0.6480  0.6480  0.4552  0.4552  0.3464  0.3464
  0.2894  0.1122  0.1359  0.2019

 Free energy of the ion-electron system (eV)
  ---------------------------------------------------
  alpha Z        PSCENC =       363.64412534
  Ewald energy   TEWEN  =     95671.34062858
  -1/2 Hartree   DENC   =   -110558.94458115
  -exchange  EXHF       =         0.00000000
  -V(xc)+E(xc)   XCENC  =       580.56650482
  PAW double counting   =     12660.77857938   -12531.50263507
  entropy T*S    EENTRO =         0.02740868
  eigenvalues    EBANDS =     -2244.01336215
  atomic energy  EATOM  =     15809.11153208
  ---------------------------------------------------
  free energy    TOTEN  =      -248.99179949 eV

  energy without entropy =     -249.01920816  energy(sigma->0) =     -249.00093571


--------------------------------------------------------------------------------------------------------




----------------------------------------- Iteration    1(  20)  ---------------------------------------


    POTLOK:  cpu time    0.07: real time    0.08
    SETDIJ:  cpu time    0.01: real time    0.01
     EDDAV:  cpu time    3.77: real time    3.77
       DOS:  cpu time    0.00: real time    0.00
    CHARGE:  cpu time    0.11: real time    0.11
    MIXING:  cpu time    0.00: real time    0.00
    --------------------------------------------
      LOOP:  cpu time    3.97: real time    4.20

 eigenvalue-minimisations  :  1920
 total energy-change (2. order) : 0.4179312E-01  (-0.5991539E-01)
 number of electron     233.9999795 magnetization       0.2146192
 augmentation part       68.6286294 magnetization      -0.8841964

 Broyden mixing:
  rms(total) = 0.65097E+00    rms(broyden)= 0.65087E+00
  rms(prec ) = 0.70106E+00
  weight for this iteration     100.00

 eigenvalues of (default mixing * dielectric matrix)
  average eigenvalue GAMMA=   0.6170
  1.6403  1.6403  0.7730  0.7730  0.8185  0.8185  0.4948  0.4948  0.3404  0.3404
  0.3798  0.2907  0.1122  0.1359  0.2022

 Free energy of the ion-electron system (eV)
  ---------------------------------------------------
  alpha Z        PSCENC =       363.64412534
  Ewald energy   TEWEN  =     95671.34062858
  -1/2 Hartree   DENC   =   -110582.63577694
  -exchange  EXHF       =         0.00000000
  -V(xc)+E(xc)   XCENC  =       582.54874600
  PAW double counting   =     12712.98313146   -12584.93707748
  entropy T*S    EENTRO =         0.01038410
  eigenvalues    EBANDS =     -2221.01569952
  atomic energy  EATOM  =     15809.11153208
  ---------------------------------------------------
  free energy    TOTEN  =      -248.95000636 eV

  energy without entropy =     -248.96039047  energy(sigma->0) =     -248.95346773


--------------------------------------------------------------------------------------------------------




----------------------------------------- Iteration    1(  21)  ---------------------------------------


    POTLOK:  cpu time    0.07: real time    0.07
    SETDIJ:  cpu time    0.01: real time    0.01
     EDDAV:  cpu time    3.60: real time    3.61
       DOS:  cpu time    0.00: real time    0.00
    CHARGE:  cpu time    0.11: real time    0.11
    MIXING:  cpu time    0.00: real time    0.00
    --------------------------------------------
      LOOP:  cpu time    3.81: real time    3.90

 eigenvalue-minimisations  :  1824
 total energy-change (2. order) :-0.3886782E+00  (-0.2541527E-01)
 number of electron     233.9999799 magnetization       0.2851974
 augmentation part       68.6151708 magnetization      -0.7563004

 Broyden mixing:
  rms(total) = 0.46611E+00    rms(broyden)= 0.46602E+00
  rms(prec ) = 0.50202E+00
  weight for this iteration     100.00

 eigenvalues of (default mixing * dielectric matrix)
  average eigenvalue GAMMA=   0.6436
  1.6445  1.6445  0.9607  0.9607  0.8443  0.8443  0.5291  0.5291  0.4746  0.4010
  0.3620  0.3620  0.2909  0.1122  0.1359  0.2023

 Free energy of the ion-electron system (eV)
  ---------------------------------------------------
  alpha Z        PSCENC =       363.64412534
  Ewald energy   TEWEN  =     95671.34062858
  -1/2 Hartree   DENC   =   -110584.44758741
  -exchange  EXHF       =         0.00000000
  -V(xc)+E(xc)   XCENC  =       582.22479787
  PAW double counting   =     12718.05132463   -12590.15912032
  entropy T*S    EENTRO =        -0.01232396
  eigenvalues    EBANDS =     -2219.09206142
  atomic energy  EATOM  =     15809.11153208
  ---------------------------------------------------
  free energy    TOTEN  =      -249.33868459 eV

  energy without entropy =     -249.32636064  energy(sigma->0) =     -249.33457661


--------------------------------------------------------------------------------------------------------




----------------------------------------- Iteration    1(  22)  ---------------------------------------


    POTLOK:  cpu time    0.07: real time    0.07
    SETDIJ:  cpu time    0.01: real time    0.01
     EDDAV:  cpu time    3.50: real time    3.50
       DOS:  cpu time    0.00: real time    0.00
    CHARGE:  cpu time    0.11: real time    0.11
    MIXING:  cpu time    0.01: real time    0.00
    --------------------------------------------
      LOOP:  cpu time    3.71: real time    3.79

 eigenvalue-minimisations  :  1760
 total energy-change (2. order) :-0.4260244E+00  (-0.2441511E-01)
 number of electron     233.9999805 magnetization       0.3541797
 augmentation part       68.5882181 magnetization      -0.4079689

 Broyden mixing:
  rms(total) = 0.32598E+00    rms(broyden)= 0.32522E+00
  rms(prec ) = 0.33856E+00
  weight for this iteration     100.00

 eigenvalues of (default mixing * dielectric matrix)
  average eigenvalue GAMMA=   0.6636
  1.6061  1.6061  1.2126  1.2126  0.7744  0.7744  0.6418  0.6418  0.4777  0.4777
  0.3682  0.3682  0.3784  0.2903  0.1122  0.1359  0.2022

 Free energy of the ion-electron system (eV)
  ---------------------------------------------------
  alpha Z        PSCENC =       363.64412534
  Ewald energy   TEWEN  =     95671.34062858
  -1/2 Hartree   DENC   =   -110582.45631533
  -exchange  EXHF       =         0.00000000
  -V(xc)+E(xc)   XCENC  =       581.55980619
  PAW double counting   =     12715.73028206   -12587.63433926
  entropy T*S    EENTRO =        -0.02907471
  eigenvalues    EBANDS =     -2221.03135391
  atomic energy  EATOM  =     15809.11153208
  ---------------------------------------------------
  free energy    TOTEN  =      -249.76470895 eV

  energy without entropy =     -249.73563424  energy(sigma->0) =     -249.75501738


--------------------------------------------------------------------------------------------------------




----------------------------------------- Iteration    1(  23)  ---------------------------------------


    POTLOK:  cpu time    0.07: real time    0.07
    SETDIJ:  cpu time    0.01: real time    0.01
     EDDAV:  cpu time    3.34: real time    3.34
       DOS:  cpu time    0.00: real time    0.00
    CHARGE:  cpu time    0.11: real time    0.11
    MIXING:  cpu time    0.00: real time    0.01
    --------------------------------------------
      LOOP:  cpu time    3.55: real time    3.66

 eigenvalue-minimisations  :  1664
 total energy-change (2. order) :-0.4816329E+00  (-0.1258419E-01)
 number of electron     233.9999805 magnetization       0.4539165
 augmentation part       68.5739992 magnetization      -0.1721048

 Broyden mixing:
  rms(total) = 0.27311E+00    rms(broyden)= 0.27292E+00
  rms(prec ) = 0.28561E+00
  weight for this iteration     100.00

 eigenvalues of (default mixing * dielectric matrix)
  average eigenvalue GAMMA=   0.7155
  1.7011  1.7011  1.5647  1.5647  0.7596  0.7596  0.7085  0.7085  0.5133  0.5133
  0.5219  0.3656  0.3656  0.3909  0.2905  0.1122  0.1359  0.2022

 Free energy of the ion-electron system (eV)
  ---------------------------------------------------
  alpha Z        PSCENC =       363.64412534
  Ewald energy   TEWEN  =     95671.34062858
  -1/2 Hartree   DENC   =   -110579.65497135
  -exchange  EXHF       =         0.00000000
  -V(xc)+E(xc)   XCENC  =       581.02855356
  PAW double counting   =     12716.27745409   -12588.04594342
  entropy T*S    EENTRO =        -0.02057776
  eigenvalues    EBANDS =     -2223.92714294
  atomic energy  EATOM  =     15809.11153208
  ---------------------------------------------------
  free energy    TOTEN  =      -250.24634181 eV

  energy without entropy =     -250.22576405  energy(sigma->0) =     -250.23948256


--------------------------------------------------------------------------------------------------------




----------------------------------------- Iteration    1(  24)  ---------------------------------------


    POTLOK:  cpu time    0.07: real time    0.07
    SETDIJ:  cpu time    0.01: real time    0.01
     EDDAV:  cpu time    3.41: real time    3.41
       DOS:  cpu time    0.00: real time    0.00
    CHARGE:  cpu time    0.11: real time    0.11
    MIXING:  cpu time    0.00: real time    0.01
    --------------------------------------------
      LOOP:  cpu time    3.61: real time    3.79

 eigenvalue-minimisations  :  1704
 total energy-change (2. order) :-0.6078013E+00  (-0.1594692E-01)
 number of electron     233.9999801 magnetization       0.5483556
 augmentation part       68.5868645 magnetization      -0.2219831

 Broyden mixing:
  rms(total) = 0.15209E+00    rms(broyden)= 0.15188E+00
  rms(prec ) = 0.15934E+00
  weight for this iteration     100.00

 eigenvalues of (default mixing * dielectric matrix)
  average eigenvalue GAMMA=   0.7270
  1.6900  1.6900  1.7073  1.7073  0.7623  0.7623  0.7102  0.7102  0.6444  0.5491
  0.5491  0.4600  0.3659  0.3659  0.3977  0.2905  0.1122  0.1359  0.2022

 Free energy of the ion-electron system (eV)
  ---------------------------------------------------
  alpha Z        PSCENC =       363.64412534
  Ewald energy   TEWEN  =     95671.34062858
  -1/2 Hartree   DENC   =   -110572.81103465
  -exchange  EXHF       =         0.00000000
  -V(xc)+E(xc)   XCENC  =       580.29665498
  PAW double counting   =     12715.11140258   -12586.43009975
  entropy T*S    EENTRO =        -0.03251467
  eigenvalues    EBANDS =     -2231.08483759
  atomic energy  EATOM  =     15809.11153208
  ---------------------------------------------------
  free energy    TOTEN  =      -250.85414308 eV

  energy without entropy =     -250.82162841  energy(sigma->0) =     -250.84330485


--------------------------------------------------------------------------------------------------------




----------------------------------------- Iteration    1(  25)  ---------------------------------------


    POTLOK:  cpu time    0.07: real time    0.07
    SETDIJ:  cpu time    0.01: real time    0.01
     EDDAV:  cpu time    3.18: real time    3.19
       DOS:  cpu time    0.00: real time    0.00
    CHARGE:  cpu time    0.11: real time    0.11
    MIXING:  cpu time    0.00: real time    0.01
    --------------------------------------------
      LOOP:  cpu time    3.39: real time    3.49

 eigenvalue-minimisations  :  1560
 total energy-change (2. order) :-0.3153718E+00  (-0.1225335E-01)
 number of electron     233.9999804 magnetization       0.5672750
 augmentation part       68.5778744 magnetization      -0.3559497

 Broyden mixing:
  rms(total) = 0.18581E+00    rms(broyden)= 0.18546E+00
  rms(prec ) = 0.19605E+00
  weight for this iteration     100.00

 eigenvalues of (default mixing * dielectric matrix)
  average eigenvalue GAMMA=   0.7000
  1.7354  1.7354  1.6482  1.6482  0.7610  0.7610  0.6919  0.6919  0.6415  0.5910
  0.5910  0.1122  0.1359  0.3684  0.3684  0.3759  0.3759  0.2022  0.2904  0.2735

 Free energy of the ion-electron system (eV)
  ---------------------------------------------------
  alpha Z        PSCENC =       363.64412534
  Ewald energy   TEWEN  =     95671.34062858
  -1/2 Hartree   DENC   =   -110573.98085344
  -exchange  EXHF       =         0.00000000
  -V(xc)+E(xc)   XCENC  =       580.04865081
  PAW double counting   =     12720.76542394   -12592.09983321
  entropy T*S    EENTRO =        -0.03803495
  eigenvalues    EBANDS =     -2229.96115402
  atomic energy  EATOM  =     15809.11153208
  ---------------------------------------------------
  free energy    TOTEN  =      -251.16951486 eV

  energy without entropy =     -251.13147991  energy(sigma->0) =     -251.15683654


--------------------------------------------------------------------------------------------------------




----------------------------------------- Iteration    1(  26)  ---------------------------------------


    POTLOK:  cpu time    0.07: real time    0.07
    SETDIJ:  cpu time    0.01: real time    0.01
     EDDAV:  cpu time    3.20: real time    3.21
       DOS:  cpu time    0.00: real time    0.00
    CHARGE:  cpu time    0.11: real time    0.11
    MIXING:  cpu time    0.01: real time    0.01
    --------------------------------------------
      LOOP:  cpu time    3.41: real time    3.49

 eigenvalue-minimisations  :  1576
 total energy-change (2. order) :-0.6038224E-01  (-0.1302959E-02)
 number of electron     233.9999803 magnetization       0.6468747
 augmentation part       68.5776161 magnetization      -0.2702993

 Broyden mixing:
  rms(total) = 0.16438E+00    rms(broyden)= 0.16435E+00
  rms(prec ) = 0.17396E+00
  weight for this iteration     100.00

 eigenvalues of (default mixing * dielectric matrix)
  average eigenvalue GAMMA=   0.7346
  1.8243  1.8243  1.6820  1.6820  0.7768  0.7768  0.7992  0.7992  0.6344  0.6344
  0.5267  0.5267  0.5757  0.5022  0.3653  0.3653  0.3899  0.2905  0.1122  0.1359
  0.2022

 Free energy of the ion-electron system (eV)
  ---------------------------------------------------
  alpha Z        PSCENC =       363.64412534
  Ewald energy   TEWEN  =     95671.34062858
  -1/2 Hartree   DENC   =   -110575.59848114
  -exchange  EXHF       =         0.00000000
  -V(xc)+E(xc)   XCENC  =       580.06710393
  PAW double counting   =     12722.95235055   -12594.32770296
  entropy T*S    EENTRO =        -0.03680175
  eigenvalues    EBANDS =     -2228.38265175
  atomic energy  EATOM  =     15809.11153208
  ---------------------------------------------------
  free energy    TOTEN  =      -251.22989710 eV

  energy without entropy =     -251.19309535  energy(sigma->0) =     -251.21762985


--------------------------------------------------------------------------------------------------------




----------------------------------------- Iteration    1(  27)  ---------------------------------------


    POTLOK:  cpu time    0.08: real time    0.08
    SETDIJ:  cpu time    0.01: real time    0.01
     EDDAV:  cpu time    3.79: real time    3.79
       DOS:  cpu time    0.00: real time    0.00
    CHARGE:  cpu time    0.11: real time    0.11
    MIXING:  cpu time    0.01: real time    0.01
    --------------------------------------------
      LOOP:  cpu time    4.00: real time    4.09

 eigenvalue-minimisations  :  1936
 total energy-change (2. order) :-0.1883111E+00  (-0.8505253E-02)
 number of electron     233.9999800 magnetization       0.7597097
 augmentation part       68.5888767 magnetization      -0.0436779

 Broyden mixing:
  rms(total) = 0.93359E-01    rms(broyden)= 0.92995E-01
  rms(prec ) = 0.98060E-01
  weight for this iteration     100.00

 eigenvalues of (default mixing * dielectric matrix)
  average eigenvalue GAMMA=   0.7473
  1.7266  1.7266  1.7717  1.7717  0.7691  0.7691  0.9162  0.9162  0.7348  0.7348
  0.5589  0.5589  0.5637  0.5637  0.4979  0.3653  0.3653  0.3886  0.2905  0.1122
  0.1359  0.2022

 Free energy of the ion-electron system (eV)
  ---------------------------------------------------
  alpha Z        PSCENC =       363.64412534
  Ewald energy   TEWEN  =     95671.34062858
  -1/2 Hartree   DENC   =   -110578.92811355
  -exchange  EXHF       =         0.00000000
  -V(xc)+E(xc)   XCENC  =       579.94863645
  PAW double counting   =     12725.81507191   -12597.17309329
  entropy T*S    EENTRO =        -0.02823725
  eigenvalues    EBANDS =     -2225.14875845
  atomic energy  EATOM  =     15809.11153208
  ---------------------------------------------------
  free energy    TOTEN  =      -251.41820817 eV

  energy without entropy =     -251.38997093  energy(sigma->0) =     -251.40879576


--------------------------------------------------------------------------------------------------------




----------------------------------------- Iteration    1(  28)  ---------------------------------------


    POTLOK:  cpu time    0.07: real time    0.07
    SETDIJ:  cpu time    0.01: real time    0.01
     EDDAV:  cpu time    3.28: real time    3.28
       DOS:  cpu time    0.00: real time    0.00
    CHARGE:  cpu time    0.11: real time    0.11
    MIXING:  cpu time    0.01: real time    0.01
    --------------------------------------------
      LOOP:  cpu time    3.48: real time    3.56

 eigenvalue-minimisations  :  1616
 total energy-change (2. order) :-0.1962092E+00  (-0.3387779E-02)
 number of electron     233.9999799 magnetization       0.8153111
 augmentation part       68.5848693 magnetization       0.1079298

 Broyden mixing:
  rms(total) = 0.12085E+00    rms(broyden)= 0.12074E+00
  rms(prec ) = 0.12775E+00
  weight for this iteration     100.00

 eigenvalues of (default mixing * dielectric matrix)
  average eigenvalue GAMMA=   0.7685
  2.2859  1.7393  1.7393  1.3980  1.3980  0.7625  0.7625  0.6485  0.6485  0.7473
  0.7473  0.7164  0.5375  0.5375  0.6127  0.5341  0.3652  0.3652  0.3887  0.2905
  0.1122  0.1359  0.2022

 Free energy of the ion-electron system (eV)
  ---------------------------------------------------
  alpha Z        PSCENC =       363.64412534
  Ewald energy   TEWEN  =     95671.34062858
  -1/2 Hartree   DENC   =   -110582.13330976
  -exchange  EXHF       =         0.00000000
  -V(xc)+E(xc)   XCENC  =       579.86224878
  PAW double counting   =     12730.35872403   -12601.78027633
  entropy T*S    EENTRO =        -0.01873956
  eigenvalues    EBANDS =     -2221.99935054
  atomic energy  EATOM  =     15809.11153208
  ---------------------------------------------------
  free energy    TOTEN  =      -251.61441735 eV

  energy without entropy =     -251.59567780  energy(sigma->0) =     -251.60817083


--------------------------------------------------------------------------------------------------------




----------------------------------------- Iteration    1(  29)  ---------------------------------------


    POTLOK:  cpu time    0.07: real time    0.07
    SETDIJ:  cpu time    0.01: real time    0.01
     EDDAV:  cpu time    3.25: real time    3.25
       DOS:  cpu time    0.00: real time    0.00
    CHARGE:  cpu time    0.11: real time    0.11
    MIXING:  cpu time    0.01: real time    0.01
    --------------------------------------------
      LOOP:  cpu time    3.46: real time    3.54

 eigenvalue-minimisations  :  1600
 total energy-change (2. order) :-0.7635433E-01  (-0.1762914E-02)
 number of electron     233.9999801 magnetization       0.9374618
 augmentation part       68.5902175 magnetization       0.1846310

 Broyden mixing:
  rms(total) = 0.66804E-01    rms(broyden)= 0.66754E-01
  rms(prec ) = 0.68656E-01
  weight for this iteration     100.00

 eigenvalues of (default mixing * dielectric matrix)
  average eigenvalue GAMMA=   0.7970
  2.4211  1.9907  1.7168  1.7168  1.1663  1.1663  0.7561  0.7561  0.7902  0.7902
  0.6393  0.6393  0.5387  0.5387  0.5542  0.5542  0.5319  0.3653  0.3653  0.3888
  0.2905  0.1122  0.1359  0.2022

 Free energy of the ion-electron system (eV)
  ---------------------------------------------------
  alpha Z        PSCENC =       363.64412534
  Ewald energy   TEWEN  =     95671.34062858
  -1/2 Hartree   DENC   =   -110580.49506208
  -exchange  EXHF       =         0.00000000
  -V(xc)+E(xc)   XCENC  =       579.82000176
  PAW double counting   =     12731.17273204   -12602.56941872
  entropy T*S    EENTRO =        -0.02684875
  eigenvalues    EBANDS =     -2223.68846194
  atomic energy  EATOM  =     15809.11153208
  ---------------------------------------------------
  free energy    TOTEN  =      -251.69077169 eV

  energy without entropy =     -251.66392293  energy(sigma->0) =     -251.68182210


--------------------------------------------------------------------------------------------------------




----------------------------------------- Iteration    1(  30)  ---------------------------------------


    POTLOK:  cpu time    0.07: real time    0.07
    SETDIJ:  cpu time    0.01: real time    0.01
     EDDAV:  cpu time    3.21: real time    3.22
       DOS:  cpu time    0.00: real time    0.00
    CHARGE:  cpu time    0.11: real time    0.11
    MIXING:  cpu time    0.01: real time    0.01
    --------------------------------------------
      LOOP:  cpu time    3.42: real time    3.51

 eigenvalue-minimisations  :  1584
 total energy-change (2. order) :-0.1314985E+00  (-0.2296999E-02)
 number of electron     233.9999802 magnetization       1.1085536
 augmentation part       68.5932267 magnetization       0.2512827

 Broyden mixing:
  rms(total) = 0.75237E-01    rms(broyden)= 0.75056E-01
  rms(prec ) = 0.78631E-01
  weight for this iteration     100.00

 eigenvalues of (default mixing * dielectric matrix)
  average eigenvalue GAMMA=   0.8736
  4.3120  1.9296  1.7517  1.7517  1.2739  1.2739  0.7398  0.7398  0.6770  0.6770
  0.7422  0.7422  0.6420  0.5313  0.5313  0.5784  0.5784  0.5068  0.3653  0.3653
  0.3887  0.2905  0.1122  0.1359  0.2022

 Free energy of the ion-electron system (eV)
  ---------------------------------------------------
  alpha Z        PSCENC =       363.64412534
  Ewald energy   TEWEN  =     95671.34062858
  -1/2 Hartree   DENC   =   -110579.42716471
  -exchange  EXHF       =         0.00000000
  -V(xc)+E(xc)   XCENC  =       579.64878931
  PAW double counting   =     12730.34827710   -12601.69554451
  entropy T*S    EENTRO =        -0.03306978
  eigenvalues    EBANDS =     -2224.75984360
  atomic energy  EATOM  =     15809.11153208
  ---------------------------------------------------
  free energy    TOTEN  =      -251.82227018 eV

  energy without entropy =     -251.78920040  energy(sigma->0) =     -251.81124692


--------------------------------------------------------------------------------------------------------




----------------------------------------- Iteration    1(  31)  ---------------------------------------


    POTLOK:  cpu time    0.07: real time    0.07
    SETDIJ:  cpu time    0.01: real time    0.01
     EDDAV:  cpu time    3.37: real time    3.38
       DOS:  cpu time    0.00: real time    0.00
    CHARGE:  cpu time    0.11: real time    0.11
    MIXING:  cpu time    0.01: real time    0.01
    --------------------------------------------
      LOOP:  cpu time    3.58: real time    3.67

 eigenvalue-minimisations  :  1680
 total energy-change (2. order) :-0.1158723E+00  (-0.2790280E-02)
 number of electron     233.9999801 magnetization       1.1824222
 augmentation part       68.5835514 magnetization       0.3755429

 Broyden mixing:
  rms(total) = 0.54169E-01    rms(broyden)= 0.54085E-01
  rms(prec ) = 0.55987E-01
  weight for this iteration     100.00

[...]
     26     -10.2109      1.00000
     27      -9.6270      1.00000
     28      -9.5079      1.00000
     29      -9.4895      1.00000
     30      -9.4545      1.00000
     31      -9.3261      1.00000
     32      -9.3227      1.00000
     33      -9.1641      1.00000
     34      -9.1299      1.00000
     35      -9.0241      1.00000
     36      -8.8393      1.00000
     37      -8.8175      1.00000
     38      -8.6456      1.00000
     39      -8.5957      1.00000
     40      -8.5564      1.00000
     41      -8.3222      1.00000
     42      -8.1382      1.00000
     43      -8.1143      1.00000
     44      -8.1123      1.00000
     45      -8.0789      1.00000
     46      -8.0414      1.00000
     47      -7.9669      1.00000
     48      -7.9622      1.00000
     49      -7.9190      1.00000
     50      -7.9070      1.00000
     51      -7.8888      1.00000
     52      -7.8285      1.00000
     53      -7.7152      1.00000
     54      -7.6641      1.00000
     55      -7.6412      1.00000
     56      -7.6033      1.00000
     57      -7.5085      1.00000
     58      -7.4931      1.00000
     59      -7.3808      1.00000
     60      -7.3683      1.00000
     61      -7.2722      1.00000
     62      -7.2258      1.00000
     63      -7.2252      1.00000
     64      -7.1076      1.00000
     65      -7.0299      1.00000
     66      -6.9921      1.00000
     67      -6.8946      1.00000
     68      -6.8714      1.00000
     69      -6.8283      1.00000
     70      -6.8006      1.00000
     71      -6.7589      1.00000
     72      -6.7487      1.00000
     73      -6.6572      1.00000
     74      -6.5369      1.00000
     75      -6.5011      1.00000
     76      -6.4924      1.00000
     77      -6.4299      1.00000
     78      -6.4192      1.00000
     79      -6.3493      1.00000
     80      -6.2552      1.00000
     81      -6.2434      1.00000
     82      -6.1987      1.00000
     83      -6.1922      1.00000
     84      -6.0685      1.00000
     85      -6.0476      1.00000
     86      -6.0266      1.00000
     87      -5.9892      1.00000
     88      -5.9745      1.00000
     89      -5.9044      1.00000
     90      -5.8723      1.00000
     91      -5.7789      1.00000
     92      -5.7535      1.00000
     93      -5.6419      1.00000
     94      -5.4248      1.00000
     95      -5.3273      1.00000
     96      -5.3072      1.00000
     97      -5.2111      1.00000
     98      -5.2046      1.00000
     99      -5.1616      1.00000
    100      -5.1048      1.00000
    101      -4.9736      1.00000
    102      -4.8797      1.00000
    103      -4.8561      1.00000
    104      -4.8195      1.00000
    105      -4.6997      1.00000
    106      -4.5762      1.00000
    107      -4.5728      1.00000
    108      -4.5076      1.00000
    109      -4.4315      1.00000
    110      -4.2886      1.00000
    111      -4.2527      1.00000
    112      -4.1430      1.00000
    113      -4.0632      1.00000
    114      -4.0498      1.00000
    115      -3.8424      1.00008
    116      -3.8215      1.00014
    117      -3.1279      0.11111
    118      -2.9925     -0.03543
    119      -2.4280     -0.00000
    120      -2.2069     -0.00000
    121      -2.0783     -0.00000
    122      -2.0305     -0.00000
    123      -1.9904     -0.00000
    124      -1.9343     -0.00000
    125      -1.8452     -0.00000
    126      -1.7968     -0.00000
    127      -1.6752     -0.00000
    128      -1.6712     -0.00000
    129      -1.3152     -0.00000
    130      -1.1855     -0.00000
    131      -0.7825     -0.00000
    132      -0.4356     -0.00000
    133      -0.3413     -0.00000
    134      -0.2821     -0.00000
    135      -0.1796     -0.00000
    136      -0.1588     -0.00000
    137      -0.1443     -0.00000
    138      -0.0726     -0.00000
    139      -0.0258     -0.00000
    140      -0.0237     -0.00000
    141       0.0334     -0.00000
    142       0.0707     -0.00000
    143       0.1160     -0.00000
    144       0.1508     -0.00000


--------------------------------------------------------------------------------------------------------


 soft charge-density along one line, spin component           1
         0         1         2         3         4         5         6         7         8         9
 total charge-density along one line
 
 soft charge-density along one line, spin component           2
         0         1         2         3         4         5         6         7         8         9
 total charge-density along one line
 
 pseudopotential strength for first ion, spin component:           1
 24.737   0.020   0.000   0.134   0.185   0.000   0.024   0.033
  0.020   0.025   0.000   0.002   0.003   0.000   0.000   0.001
  0.000   0.000  -7.495  -0.000   0.000  -0.200  -0.000   0.000
  0.134   0.002  -0.000  -7.347   0.017  -0.000  -0.177   0.002
  0.185   0.003   0.000   0.017  -7.504   0.000   0.002  -0.202
  0.000   0.000  -0.200  -0.000   0.000   0.168  -0.000   0.000
  0.024   0.000  -0.000  -0.177   0.002  -0.000   0.171   0.000
  0.033   0.001   0.000   0.002  -0.202   0.000   0.000   0.168
 pseudopotential strength for first ion, spin component:           2
 24.716   0.019   0.000   0.137   0.171   0.000   0.024   0.030
  0.019   0.025   0.000   0.002   0.003   0.000   0.000   0.001
  0.000   0.000  -7.361   0.000   0.000  -0.179   0.000   0.000
  0.137   0.002   0.000  -7.494   0.048   0.000  -0.200   0.007
  0.171   0.003   0.000   0.048  -7.370   0.000   0.007  -0.180
  0.000   0.000  -0.179   0.000   0.000   0.171   0.000   0.000
  0.024   0.000   0.000  -0.200   0.007   0.000   0.168   0.001
  0.030   0.001   0.000   0.007  -0.180   0.000   0.001   0.171
 total augmentation occupancy for first ion, spin component:           1
  1.878   0.404   0.000   0.066   0.077   0.000   0.055   0.084
  0.404   0.425   0.000  -0.296  -0.385   0.000   0.187   0.253
  0.000   0.000   1.692   0.000   0.000  -0.760   0.000   0.000
  0.066  -0.296   0.000   1.657   0.025   0.000  -0.722   0.061
  0.077  -0.385   0.000   0.025   1.648   0.000   0.062  -0.755
  0.000   0.000  -0.760   0.000   0.000   0.473   0.000   0.000
  0.055   0.187   0.000  -0.722   0.062   0.000   0.440  -0.041
  0.084   0.253   0.000   0.061  -0.755   0.000  -0.041   0.454
 total augmentation occupancy for first ion, spin component:           2
 -0.002   0.005   0.000   0.006  -0.018   0.000  -0.012   0.013
  0.005  -0.029   0.000  -0.020   0.057   0.000   0.035  -0.054
  0.000   0.000   0.111   0.000   0.000   0.026   0.000   0.000
  0.006  -0.020   0.000  -0.154   0.030   0.000  -0.041   0.009
 -0.018   0.057   0.000   0.030   0.111   0.000   0.003   0.024
  0.000   0.000   0.026   0.000   0.000  -0.057   0.000   0.000
 -0.012   0.035   0.000  -0.041   0.003   0.000   0.048  -0.010
  0.013  -0.054   0.000   0.009   0.024   0.000  -0.010  -0.052


------------------------ aborting loop because EDIFF is reached ----------------------------------------


    CHARGE:  cpu time    0.11: real time    0.11
    FORLOC:  cpu time    0.01: real time    0.01
    FORNL :  cpu time    1.40: real time    1.40
    STRESS:  cpu time    1.92: real time    1.92
    FORCOR:  cpu time    0.07: real time    0.07
    FORHAR:  cpu time    0.01: real time    0.01
    MIXING:  cpu time    0.00: real time    0.00

  FORCE on cell =-STRESS in cart. coord.  units (eV):
  Direction    XX          YY          ZZ          XY          YZ          ZX
  --------------------------------------------------------------------------------------
  Alpha Z   363.64413   363.64413   363.64413
  Ewald  100756.48474106060.63558************    -0.00000    -0.00000  -121.22143
  Hartree105270.07087109254.03202************    -0.00000    -0.00000  -155.11978
  E(xc)   -1141.50028 -1142.31750 -1141.91714    -0.00000    -0.00000    -0.01097
  Local  ************************209373.22114    -0.00000    -0.00000   279.93985
  n-local   274.91949   285.59796   271.31321     0.00000     0.00001     0.87702
  augment  1419.99387  1411.07223  1433.17440    -0.00000    -0.00000    -0.92856
  Kinetic  3255.37697  3219.60599  3287.27493    -0.00000    -0.00000    -3.29400
  Fock        0.00000     0.00000     0.00000     0.00000     0.00000     0.00000
  -------------------------------------------------------------------------------------
  Total     -25.60148     8.24557   -22.13887     0.00000     0.00000     0.24213
  in kB     -45.54061    14.66745   -39.38122     0.00000     0.00000     0.43071
  external pressure =      -23.42 kB  Pullay stress =        0.00 kB


 VOLUME and BASIS-vectors are now :
 -----------------------------------------------------------------------------
  energy-cutoff  :      367.69
  volume of cell :      900.69
      direct lattice vectors                 reciprocal lattice vectors
    10.307999610  0.000000000  0.000000000     0.097012033  0.000000000  0.000000000
     0.000000000  2.854000090  0.000000000     0.000000000  0.350385413  0.000000000
     0.000000000  0.000000000 30.615999220     0.000000000  0.000000000  0.032662661

  length of vectors
    10.307999610  2.854000090 30.615999220     0.097012033  0.350385413  0.032662661


 FORCES acting on ions
    electron-ion (+dipol)            ewald-force                    non-local-force                 convergence-correction
 -----------------------------------------------------------------------------------------------
   -.253E+03 0.324E-13 -.409E+03   0.280E+03 -.178E-13 0.430E+03   -.282E+02 0.748E-24 -.221E+02   -.616E-03 0.247E-13 -.258E-01
   0.264E+03 -.129E-12 -.862E+03   -.291E+03 -.170E-13 0.842E+03   0.282E+02 0.924E-24 0.207E+02   0.500E-02 0.296E-13 -.159E-01
   0.231E+03 0.194E-12 0.181E+04   -.259E+03 -.270E-14 -.183E+04   0.276E+02 0.234E-22 0.201E+02   -.192E-01 -.629E-14 -.895E-02
   -.218E+02 0.139E-12 0.189E+04   0.330E+02 -.458E-14 -.192E+04   -.112E+02 0.308E-21 0.296E+02   0.249E-01 0.498E-13 -.183E-01
   -.194E+03 0.677E-12 -.943E+03   0.214E+03 -.120E-14 0.917E+03   -.216E+02 0.744E-25 0.269E+02   0.115E-02 0.876E-13 -.289E-01
   0.186E+03 0.498E-12 -.344E+03   -.207E+03 0.311E-15 0.372E+03   0.219E+02 0.893E-23 -.283E+02   0.124E-02 -.213E-13 -.218E-01
   -.298E+03 0.911E-12 0.981E+03   0.327E+03 0.517E-14 -.964E+03   -.286E+02 -.427E-23 -.167E+02   0.476E-01 -.382E-13 -.692E-01
   -.232E+03 -.468E-12 -.174E+04   0.259E+03 0.452E-14 0.176E+04   -.281E+02 -.111E-24 -.211E+02   -.365E-03 -.136E-13 -.281E-02
   0.259E+03 0.103E-11 0.488E+03   -.286E+03 -.271E-14 -.508E+03   0.280E+02 0.624E-23 0.206E+02   -.180E-02 -.841E-13 -.243E-01
   -.193E+03 0.378E-12 0.429E+03   0.214E+03 -.105E-13 -.456E+03   -.218E+02 0.988E-24 0.276E+02   -.123E-02 0.278E-13 -.225E-01
   0.160E+03 -.578E-12 -.170E+04   -.182E+03 -.622E-14 0.172E+04   0.219E+02 -.164E-22 -.280E+02   -.205E-01 -.548E-13 -.161E-01
   0.220E+03 -.677E-12 0.104E+04   -.229E+03 -.764E-14 -.101E+04   0.887E+01 0.424E-21 -.316E+02   0.807E-02 0.408E-13 -.618E-01
   0.486E+02 0.896E-13 -.666E+02   -.568E+02 -.323E-14 0.622E+02   0.852E+01 0.969E-23 0.454E+01   -.221E-02 0.121E-13 -.234E-01
   -.518E+02 -.349E-13 -.119E+04   0.601E+02 -.295E-13 0.120E+04   -.853E+01 0.114E-23 -.498E+01   -.582E-02 0.374E-14 -.153E-01
   -.220E+03 0.896E-13 0.160E+04   0.226E+03 -.114E-13 -.160E+04   -.577E+01 0.550E-22 0.388E+01   0.318E-02 -.708E-14 -.238E-01
   0.978E+02 -.239E-12 0.826E+03   -.976E+02 0.136E-13 -.817E+03   -.257E+00 0.353E-21 -.860E+01   0.970E-02 0.879E-13 -.451E-01
   -.683E+02 0.219E-12 -.198E+04   0.688E+02 -.108E-13 0.200E+04   -.507E+00 -.425E-22 -.250E+02   0.116E-01 -.282E-13 0.614E-02
   0.112E+03 -.349E-13 -.199E+04   -.116E+03 0.326E-15 0.203E+04   0.413E+01 -.227E-22 -.333E+02   0.463E-03 0.363E-13 0.916E-02
   -.122E+03 -.339E-12 0.656E+03   0.124E+03 -.711E-14 -.663E+03   -.257E+01 0.345E-25 0.758E+01   -.279E-02 -.132E-13 -.349E-01
   0.685E+02 0.448E-13 0.136E+04   -.707E+02 0.243E-14 -.137E+04   0.222E+01 -.220E-22 0.820E+01   0.322E-01 -.204E-13 -.736E-02
   0.719E+02 0.478E-12 -.144E+04   -.801E+02 -.324E-14 0.143E+04   0.839E+01 -.114E-22 0.555E+01   0.250E-01 -.553E-14 -.983E-02
   -.467E+02 0.110E-11 0.140E+03   0.551E+02 -.128E-13 -.135E+03   -.877E+01 0.143E-23 -.450E+01   0.327E-02 0.481E-15 -.243E-01
   0.120E+03 -.677E-12 -.569E+03   -.125E+03 -.513E-14 0.578E+03   0.566E+01 -.130E-22 -.894E+01   -.185E-02 -.305E-14 -.227E-01
   -.124E+03 0.183E-11 -.699E+03   0.129E+03 0.571E-14 0.692E+03   -.562E+01 0.665E-24 0.761E+01   -.625E-02 -.213E-13 -.261E-01
   -.157E+02 -.251E-11 0.204E+04   0.158E+02 -.844E-14 -.207E+04   -.104E+00 0.431E-22 0.323E+02   -.143E-01 0.116E-12 0.431E-02
   0.484E+02 0.144E-12 0.342E+03   -.477E+02 0.241E-13 -.342E+03   -.772E+00 -.165E-22 0.464E+00   0.151E-02 -.246E-13 -.243E-01
   0.150E+01 0.105E-12 -.183E+04   -.199E+01 0.638E-14 0.183E+04   0.615E+00 0.462E-23 0.582E+00   0.152E-01 0.122E-17 -.255E-02
   -.314E+02 0.166E-12 0.134E+04   0.316E+02 -.128E-13 -.134E+04   -.250E+00 0.251E-22 -.405E+00   -.276E-01 0.241E-13 0.214E-01
   0.564E+02 -.747E-13 0.187E+04   -.572E+02 0.969E-14 -.186E+04   0.762E+00 0.865E-22 -.412E+01   -.818E-02 0.266E-13 0.443E-01
   -.179E+02 -.270E-12 -.130E+04   0.179E+02 0.148E-14 0.130E+04   0.280E+00 -.126E-22 0.718E+00   -.140E-01 0.156E-13 -.252E-01
   0.290E+01 0.248E-12 -.184E+03   -.278E+01 0.591E-14 0.185E+03   -.239E+00 0.529E-23 -.768E+00   -.297E-02 -.803E-13 -.246E-01
   -.868E+02 0.122E-11 0.192E+04   0.865E+02 0.403E-14 -.192E+04   0.400E+00 -.417E-22 0.726E+00   -.226E-01 0.749E-14 -.334E-01
   0.370E+02 0.492E-13 -.122E+04   -.368E+02 0.283E-13 0.122E+04   -.683E+00 -.388E-24 0.253E+00   -.969E-03 -.713E-13 -.176E-01
   -.314E+02 0.129E-11 -.257E+03   0.309E+02 0.306E-14 0.257E+03   0.657E+00 -.837E-23 -.361E+00   -.277E-02 -.694E-13 -.290E-01
   -.187E+02 0.161E-12 0.279E+03   0.184E+02 -.253E-14 -.279E+03   0.308E+00 -.113E-22 0.955E+00   0.285E-03 0.829E-14 -.268E-01
   -.189E+01 -.117E-11 -.181E+04   0.196E+01 -.160E-13 0.181E+04   -.325E+00 -.604E-23 -.131E+00   0.364E-02 0.992E-14 -.251E-01
   0.487E+02 -.110E-11 0.153E+04   -.474E+02 -.279E-13 -.153E+04   -.139E+01 -.666E-22 -.425E+00   -.444E-02 -.114E-12 -.200E-01
 -----------------------------------------------------------------------------------------------
   0.696E+01 0.279E-11 0.211E+02   0.639E-13 -.106E-12 0.682E-12   -.701E+01 0.106E-20 -.204E+02   0.334E-01 -.684E-13 -.692E+00
 
 
 POSITION                                       TOTAL-FORCE (eV/Angst)
 -----------------------------------------------------------------------------------
      8.21444      0.00000     13.70923        -0.956497     -0.000000     -0.811734
      2.09355      0.00000     16.90677         1.151667     -0.000000      0.504186
      2.12618     -0.00000      6.72186        -0.059090     -0.000000      0.080119
      8.54716     -0.00000      7.31129        -0.019284     -0.000000      0.013548
      8.70923      0.00000     17.40155        -0.842151      0.000000      0.749371
      1.59877      0.00000     13.21444         0.758092      0.000000     -0.925308
      2.96767      1.42700      8.63816         0.009568     -0.000000     -0.024207
      3.06045      1.42700     18.86323        -0.884062     -0.000000     -0.565284
      7.24755      1.42700     11.75277         0.976826      0.000000      0.541408
      3.55523      1.42700     12.24755        -0.769218      0.000000      0.816207
      6.75277      1.42700     18.36845         0.681756     -0.000000     -0.887338
      6.81372      1.42700      8.59934        -0.020921      0.000000      0.037736
      5.57869      0.00000     13.60615         0.282921     -0.000000      0.144216
      4.72931      0.00000     17.00985        -0.293570     -0.000000     -0.174993
      4.68605     -0.00000      6.79391        -0.004940     -0.000000      0.036213
      8.79110     -0.00000      9.79454         0.002733     -0.000000      0.003690
      1.70185      0.00000     20.88669         0.002869     -0.000000     -1.233172
      8.60615      0.00000     20.03731         0.216902     -0.000000     -1.274660
      1.64904      0.00000     10.61027        -0.022316      0.000000      0.050572
      0.43389      1.42700      8.45932         0.030015     -0.000000     -0.000750
      0.42469      1.42700     18.76015         0.277006      0.000000      0.266650
      9.88331      1.42700     11.85585        -0.320091     -0.000000      0.035751
      3.45215      1.42700     14.88331         0.172693     -0.000000     -0.435103
      6.85585      1.42700     15.73269        -0.170691     -0.000000      0.064615
      3.44518      1.42700      4.85506         0.021304      0.000000     -0.017246
      8.60409      0.00000     11.72391        -0.024471     -0.000000      0.948825
      1.70391      0.00000     18.89209         0.146965     -0.000000      0.489047
      1.71723      0.00000      8.65770        -0.046917     -0.000000     -0.093289
      6.48940      0.00000      7.48028        -0.039793     -0.000000      0.026948
      6.72391      0.00000     17.01191         0.327281      0.000000      0.352209
      3.58409      0.00000     13.60409        -0.118416      0.000000     -0.118444
      3.39926      1.42700      6.60234         0.055555      0.000000      0.071676
      3.45009      1.42700     16.87791        -0.431517     -0.000000      0.118180
      6.85791      1.42700     13.73809         0.234756      0.000000      0.138629
      1.56991      1.42700     11.85791         0.007466     -0.000000      0.918887
      8.73809      1.42700     18.75809        -0.259269      0.000000      0.139939
      8.85612      1.42700      8.56222        -0.073161      0.000000      0.012907
 -----------------------------------------------------------------------------------
    total drift:                               -0.017156      0.000000      0.018185


--------------------------------------------------------------------------------------------------------



  FREE ENERGIE OF THE ION-ELECTRON SYSTEM (eV)
  ---------------------------------------------------
  free  energy   TOTEN  =      -252.89437186 eV

  energy  without entropy=     -252.87909759  energy(sigma->0) =     -252.88928044
 
 d Force = 0.2951498E-03[-0.345E-03, 0.935E-03]  d Energy =-0.6937745E-03 0.989E-03
 d Force =-0.2859904E+02[-0.286E+02,-0.286E+02]  d Ewald  =-0.2859904E+02 0.390E-05


--------------------------------------------------------------------------------------------------------


    POTLOK:  cpu time    0.09: real time    0.09


--------------------------------------------------------------------------------------------------------




--------------------------------------------------------------------------------------------------------


  
 reached required accuracy - stopping structural energy minimisation
     LOOP+:  cpu time   22.01: real time   22.94
    4ORBIT:  cpu time    0.00: real time    0.00

 total amount of memory used by VASP on root node    58588. kBytes
========================================================================

   base      :      30000. kBytes
   nonl-proj :       8484. kBytes
   fftplans  :       3122. kBytes
   grid      :       7776. kBytes
   one-center:        590. kBytes
   wavefun   :       8616. kBytes
 
  
  
 General timing and accounting informations for this job:
 ========================================================
  
                  Total CPU time used (sec):     1052.022
                            User time (sec):     1045.280
                          System time (sec):        6.742
                         Elapsed time (sec):     1098.756
  
                   Maximum memory used (kb):      136136.
                   Average memory used (kb):           0.
  
                          Minor page faults:        24865
                          Major page faults:            0
                 Voluntary context switches:        14375
