 vasp.5.3.3 18Dez12 (build May 12 2016 12:04:25) complex                        
  
 executed on             LinuxIFC date 2019.05.19  20:27:55
 running on   32 total cores
 distrk:  each k-point on   32 cores,    1 groups
 distr:  one band on NCORES_PER_BAND=   4 cores,    8 groups


--------------------------------------------------------------------------------------------------------


 INCAR:
 POTCAR:    PAW_PBE O 08Apr2002                   
 POTCAR:    PAW_PBE Mn 06Sep2000                  
 POTCAR:    PAW_PBE O 08Apr2002                   
  local pseudopotential read in
  partial core-charges read in
  partial kinetic energy density read in
  kinetic energy density of atom read in
  atomic valenz-charges read in
  non local Contribution for L=           0  read in
    real space projection operators read in
  non local Contribution for L=           0  read in
    real space projection operators read in
  non local Contribution for L=           1  read in
    real space projection operators read in
  non local Contribution for L=           1  read in
    real space projection operators read in
    PAW grid and wavefunctions read in
 
   number of l-projection  operators is LMAX  =           4
   number of lm-projection operators is LMMAX =           8
 
 POTCAR:    PAW_PBE Mn 06Sep2000                  
  local pseudopotential read in
  partial core-charges read in
  partial kinetic energy density read in
  atomic valenz-charges read in
  non local Contribution for L=           2  read in
    real space projection operators read in
  non local Contribution for L=           2  read in
    real space projection operators read in
  non local Contribution for L=           0  read in
    real space projection operators read in
  non local Contribution for L=           0  read in
    real space projection operators read in
  non local Contribution for L=           1  read in
    real space projection operators read in
  non local Contribution for L=           1  read in
    real space projection operators read in
    PAW grid and wavefunctions read in
 
   number of l-projection  operators is LMAX  =           6
   number of lm-projection operators is LMMAX =          18
 

 ----------------------------------------------------------------------------- 
|                                                                             |
|  ADVICE TO THIS USER RUNNING 'VASP/VAMP'   (HEAR YOUR MASTER'S VOICE ...):  |
|                                                                             |
|      You have a (more or less) 'large supercell' and for larger cells       |
|      it might be more efficient to use real space projection opertators     |
|      So try LREAL= Auto  in the INCAR   file.                               |
|      Mind: At the moment your POTCAR file does not contain real space       |
|       projectors, and has to be modified,  BUT if you                       |
|      want to do an extremely  accurate calculation you might also keep the  |
|      reciprocal projection scheme          (i.e. LREAL=.FALSE.)             |
|                                                                             |
 ----------------------------------------------------------------------------- 


 ----------------------------------------------------------------------------- 
|                                                                             |
|  ADVICE TO THIS USER RUNNING 'VASP/VAMP'   (HEAR YOUR MASTER'S VOICE ...):  |
|                                                                             |
|      You enforced a specific xc-type in the INCAR file,                     |
|      a different type was found on the POTCAR file                          |
|          I HOPE YOU KNOW, WHAT YOU ARE  DOING                               |
|                                                                             |
 ----------------------------------------------------------------------------- 

  PAW_PBE O 08Apr2002                   :
 energy of atom  1       EATOM= -432.3788
 kinetic energy error for atom=    0.0208 (will be added to EATOM!!)
  PAW_PBE Mn 06Sep2000                  :
 energy of atom  2       EATOM= -416.7541
 kinetic energy error for atom=    0.0024 (will be added to EATOM!!)
 
 
 POSCAR: (Mn O2)16  (P1) ~ POSCAR_3 1 0 0  surfac
  positions in direct lattice
  velocities in cartesian coordinates
 exchange correlation table for  LEXCH =       14
   RHO(1)=    0.500       N(1)  =     2000
   RHO(2)=  100.500       N(2)  =     4000
 


--------------------------------------------------------------------------------------------------------


 ion  position               nearest neighbor table
   1  0.341  0.500  0.160-  44 1.60
   2  0.156  0.000  0.432-  40 1.89  40 1.89  34 1.89
   3  0.156  0.000  0.762-  41 1.89  41 1.89  35 1.90
   4  0.659  0.500  0.267-  36 1.87  38 1.94  38 1.94
   5  0.656  0.500  0.597-  39 1.89  39 1.89  37 1.90
   6  0.845  0.000  0.236-  38 1.89  36 1.90  36 1.90
   7  0.844  0.000  0.568-  37 1.89  37 1.89  39 1.90
   8  0.344  0.500  0.402-  34 1.89  34 1.89  40 1.91
   9  0.344  0.500  0.733-  35 1.89  35 1.89  41 1.90
  10  0.798  0.000  0.448-  48 1.90  48 1.90  42 1.92
  11  0.796  0.000  0.779-  49 1.89  49 1.89  43 1.90
  12  0.293  0.500  0.283-  46 1.86  46 1.86  44 2.08
  13  0.296  0.500  0.614-  47 1.89  47 1.89  45 1.90
  14  0.207  0.000  0.221-  44 1.90  44 1.90  46 1.91
  15  0.204  0.000  0.551-  45 1.89  45 1.89  47 1.90
  16  0.705  0.500  0.385-  42 1.89  42 1.89  48 1.91
  17  0.704  0.500  0.716-  43 1.89  43 1.89  49 1.90
  18  0.162  0.000  0.348-  46 1.86  40 1.88  40 1.88
  19  0.161  0.000  0.678-  47 1.85  41 1.88  41 1.88
  20  0.658  0.500  0.184-  38 1.81  38 1.81
  21  0.661  0.500  0.513-  39 1.88  39 1.88  48 1.88
  22  0.839  0.000  0.321-  42 1.85  36 1.88  36 1.88
  23  0.839  0.000  0.652-  43 1.85  37 1.88  37 1.88
  24  0.339  0.500  0.486-  45 1.87  34 1.88  34 1.88
  25  0.339  0.500  0.817-  35 1.88  35 1.88
  26  0.543  0.000  0.445-  48 1.88  48 1.88  34 1.89
  27  0.541  0.000  0.775-  35 1.88  49 1.88  49 1.88
  28  0.041  0.500  0.281-  36 1.87  46 1.90  46 1.90
  29  0.041  0.500  0.610-  37 1.88  47 1.88  47 1.88
  30  0.457  0.000  0.227-  44 1.88  44 1.88  38 1.92
  31  0.459  0.000  0.555-  39 1.88  45 1.88  45 1.88
  32  0.960  0.500  0.388-  40 1.85  42 1.88  42 1.88
  33  0.959  0.500  0.720-  41 1.88  43 1.88  43 1.88
  34  0.348  0.000  0.445-  24 1.88  24 1.88  26 1.89   8 1.89   8 1.89   2 1.89  40 2.88  40 2.88

  35  0.348  0.000  0.775-  27 1.88  25 1.88  25 1.88   9 1.89   9 1.89   3 1.90  41 2.87  41 2.87

  36  0.848  0.500  0.279-  28 1.87   4 1.87  22 1.88  22 1.88   6 1.90   6 1.90  38 2.89  38 2.89

  37  0.848  0.500  0.610-  29 1.88  23 1.88  23 1.88   7 1.89   7 1.89   5 1.90  39 2.87  39 2.87

  38  0.654  0.000  0.222-  20 1.81  20 1.81   6 1.89  30 1.92   4 1.94   4 1.94  36 2.89  36 2.89

  39  0.652  0.000  0.555-  31 1.88  21 1.88  21 1.88   5 1.89   5 1.89   7 1.90  37 2.87  37 2.87

  40  0.151  0.500  0.389-  32 1.85  18 1.88  18 1.88   2 1.89   2 1.89   8 1.91  34 2.88  34 2.88

  41  0.152  0.500  0.720-  33 1.88  19 1.88  19 1.88   3 1.89   3 1.89   9 1.90  35 2.87  35 2.87

  42  0.833  0.000  0.384-  22 1.85  32 1.88  32 1.88  16 1.89  16 1.89  10 1.92  48 2.87  48 2.87

  43  0.832  0.000  0.715-  23 1.85  33 1.88  33 1.88  17 1.89  17 1.89  11 1.90  49 2.87  49 2.87

  44  0.335  0.500  0.214-   1 1.60  30 1.88  30 1.88  14 1.90  14 1.90  12 2.08  46 2.98  46 2.98

  45  0.332  0.500  0.550-  24 1.87  31 1.88  31 1.88  15 1.89  15 1.89  13 1.90  47 2.87  47 2.87

  46  0.169  0.000  0.285-  12 1.86  12 1.86  18 1.86  28 1.90  28 1.90  14 1.91  44 2.98  44 2.98

  47  0.168  0.000  0.615-  19 1.85  29 1.88  29 1.88  13 1.89  13 1.89  15 1.90  45 2.87  45 2.87

  48  0.668  0.500  0.449-  26 1.88  26 1.88  21 1.88  10 1.90  10 1.90  16 1.91  42 2.87  42 2.87

  49  0.668  0.500  0.780-  27 1.88  27 1.88  11 1.89  11 1.89  17 1.90  43 2.87  43 2.87
 
  LATTYP: Found a simple orthorhombic cell.
 ALAT       =     2.8413000000
 B/A-ratio  =     3.4120261852
 C/A-ratio  =    10.3466019076
  
  Lattice vectors:
  
 A1 = (   0.0000000000,  -2.8413000000,   0.0000000000)
 A2 = (  -9.6945900000,   0.0000000000,   0.0000000000)
 A3 = (   0.0000000000,   0.0000000000, -29.3978000000)


Analysis of symmetry for initial positions (statically):
=====================================================================
 Subroutine PRICEL returns:
 Original cell was already a primitive cell.
 

 Routine SETGRP: Setting up the symmetry group for a 
 simple orthorhombic supercell.


 Subroutine GETGRP returns: Found  2 space group operations
 (whereof  2 operations were pure point group operations)
 out of a pool of  8 trial point group operations.


The static configuration has the point symmetry C_1h.


Analysis of symmetry for dynamics (positions and initial velocities):
=====================================================================
 Subroutine PRICEL returns:
 Original cell was already a primitive cell.
 

 Routine SETGRP: Setting up the symmetry group for a 
 simple orthorhombic supercell.


 Subroutine GETGRP returns: Found  2 space group operations
 (whereof  2 operations were pure point group operations)
 out of a pool of  8 trial point group operations.


The dynamic configuration has the point symmetry C_1h.


Analysis of constrained symmetry for selective dynamics:
=====================================================================
 Subroutine PRICEL returns:
 Original cell was already a primitive cell.
 

 Routine SETGRP: Setting up the symmetry group for a 
 simple orthorhombic supercell.


 Subroutine GETGRP returns: Found  2 space group operations
 (whereof  2 operations were pure point group operations)
 out of a pool of  8 trial point group operations.


The constrained configuration has the point symmetry C_1h.


Analysis of magnetic symmetry:
=====================================================================

 Subroutine MAGSYM returns: Found  2 space group operations
 (whereof  2 operations were pure point group operations)
 out of a pool of  2 trial space group operations
 (whereof  2 operations were pure point group operations)
 and found also     1 'primitive' translations


The magnetic configuration has the point symmetry C_1h.


 irot  :   1
 --------------------------------------------------------------------
 isymop:   1   0   0
           0   1   0
           0   0   1

 gtrans:     0.0000000     0.0000000     0.0000000

 ptrans:     0.0000000     0.0000000     0.0000000
 rotmap:
 (   1->   1)  (   2->   2)  (   3->   3)  (   4->   4)  (   5->   5) 
 (   6->   6)  (   7->   7)  (   8->   8)  (   9->   9)  (  10->  10) 
 (  11->  11)  (  12->  12)  (  13->  13)  (  14->  14)  (  15->  15) 
 (  16->  16)  (  17->  17)  (  18->  18)  (  19->  19)  (  20->  20) 
 (  21->  21)  (  22->  22)  (  23->  23)  (  24->  24)  (  25->  25) 
 (  26->  26)  (  27->  27)  (  28->  28)  (  29->  29)  (  30->  30) 
 (  31->  31)  (  32->  32)  (  33->  33)  (  34->  34)  (  35->  35) 
 (  36->  36)  (  37->  37)  (  38->  38)  (  39->  39)  (  40->  40) 
 (  41->  41)  (  42->  42)  (  43->  43)  (  44->  44)  (  45->  45) 
 (  46->  46)  (  47->  47)  (  48->  48)  (  49->  49) 


 irot  :   2
 --------------------------------------------------------------------
 isymop:   1   0   0
           0  -1   0
           0   0   1

 gtrans:     0.0000000     0.0000000     0.0000000

 ptrans:     0.0000000     0.0000000     0.0000000
 rotmap:
 (   1->   1)  (   2->   2)  (   3->   3)  (   4->   4)  (   5->   5) 
 (   6->   6)  (   7->   7)  (   8->   8)  (   9->   9)  (  10->  10) 
 (  11->  11)  (  12->  12)  (  13->  13)  (  14->  14)  (  15->  15) 
 (  16->  16)  (  17->  17)  (  18->  18)  (  19->  19)  (  20->  20) 
 (  21->  21)  (  22->  22)  (  23->  23)  (  24->  24)  (  25->  25) 
 (  26->  26)  (  27->  27)  (  28->  28)  (  29->  29)  (  30->  30) 
 (  31->  31)  (  32->  32)  (  33->  33)  (  34->  34)  (  35->  35) 
 (  36->  36)  (  37->  37)  (  38->  38)  (  39->  39)  (  40->  40) 
 (  41->  41)  (  42->  42)  (  43->  43)  (  44->  44)  (  45->  45) 
 (  46->  46)  (  47->  47)  (  48->  48)  (  49->  49) 
 
 
 KPOINTS: Automatic mesh                          

Automatic generation of k-mesh.
Space group operators:
 irot       det(A)        alpha          n_x          n_y          n_z        tau_x        tau_y        tau_z
    1     1.000000     0.000000     1.000000     0.000000     0.000000     0.000000     0.000000     0.000000
    2    -1.000000   180.000000     0.000000     1.000000     0.000000     0.000000     0.000000     0.000000
 
 Subroutine IBZKPT returns following result:
 ===========================================
 
 Found     10 irreducible k-points:
 
 Following reciprocal coordinates:
            Coordinates               Weight
  0.000000  0.000000  0.000000      1.000000
  0.333333  0.000000  0.000000      2.000000
  0.000000  0.111111  0.000000      2.000000
  0.333333  0.111111  0.000000      4.000000
  0.000000  0.222222  0.000000      2.000000
  0.333333  0.222222  0.000000      4.000000
  0.000000  0.333333  0.000000      2.000000
  0.333333  0.333333  0.000000      4.000000
  0.000000  0.444444  0.000000      2.000000
  0.333333  0.444444  0.000000      4.000000
 
 Following cartesian coordinates:
            Coordinates               Weight
  0.000000  0.000000  0.000000      1.000000
  0.034383  0.000000  0.000000      2.000000
  0.000000  0.039106  0.000000      2.000000
  0.034383  0.039106  0.000000      4.000000
  0.000000  0.078211  0.000000      2.000000
  0.034383  0.078211  0.000000      4.000000
  0.000000  0.117317  0.000000      2.000000
  0.034383  0.117317  0.000000      4.000000
  0.000000  0.156423  0.000000      2.000000
  0.034383  0.156423  0.000000      4.000000
 
 TETIRR: Found     64 inequivalent tetrahedra from      162


--------------------------------------------------------------------------------------------------------




 Dimension of arrays:
   k-points           NKPTS =     10   k-points in BZ     NKDIM =     10   number of bands    NBANDS=    192
   number of dos      NEDOS =    301   number of ions     NIONS =     49
   non local maximal  LDIM  =      6   non local SUM 2l+1 LMDIM =     18
   total plane-waves  NPLWV = 145152
   max r-space proj   IRMAX =      1   max aug-charges    IRDMAX=   6789
   dimension x,y,z NGX =    54 NGY =   16 NGZ =  168
   dimension x,y,z NGXF=   108 NGYF=   32 NGZF=  336
   support grid    NGXF=   108 NGYF=   32 NGZF=  336
   ions per type =              33  16
 NGX,Y,Z   is equivalent  to a cutoff of   9.26,  9.36,  9.50 a.u.
 NGXF,Y,Z  is equivalent  to a cutoff of  18.52, 18.72, 19.00 a.u.


 I would recommend the setting:
   dimension x,y,z NGX =    54 NGY =   16 NGZ =  164
 SYSTEM =  (Mn O2)16  (P1) ~ POSCAR_3 1 0 0  surfa 
 POSCAR =  (Mn O2)16  (P1) ~ POSCAR_3 1 0 0  surfac

 Startparameter for this run:
   NWRITE =      1    write-flag & timer
   PREC   = normal    normal or accurate (medium, high low for compatibility)
   ISTART =      0    job   : 0-new  1-cont  2-samecut
   ICHARG =      2    charge: 1-file 2-atom 10-const
   ISPIN  =      2    spin polarized calculation?
   LNONCOLLINEAR =      F non collinear calculations
   LSORBIT =      F    spin-orbit coupling
   INIWAV =      1    electr: 0-lowe 1-rand  2-diag
   LASPH  =      F    aspherical Exc in radial PAW
   METAGGA=      F    non-selfconsistent MetaGGA calc.

 Electronic Relaxation 1
   ENCUT  =  520.0 eV  38.22 Ry    6.18 a.u.  18.03  5.28 54.66*2*pi/ulx,y,z
   ENINI  =  520.0     initial cutoff
   ENAUG  =  605.4 eV  augmentation charge cutoff
   NELM   =     60;   NELMIN=  2; NELMDL= -5     # of ELM steps 
   EDIFF  = 0.1E-03   stopping-criterion for ELM
   LREAL  =      F    real-space projection
   NLSPLINE    = F    spline interpolate recip. space projectors
   LCOMPAT=      F    compatible to vasp.4.4
   GGA_COMPAT  = T    GGA compatible to vasp.4.4-vasp.4.6
   LMAXPAW     = -100 max onsite density
   LMAXMIX     =    2 max onsite mixed and CHGCAR
   VOSKOWN=      1    Vosko Wilk Nusair interpolation
   ROPT   =    0.00000   0.00000
 Ionic relaxation
   EDIFFG = 0.1E-02   stopping-criterion for IOM
   NSW    =      0    number of steps for IOM
   NBLOCK =      1;   KBLOCK =      1    inner block; outer block 
   IBRION =     -1    ionic relax: 0-MD 1-quasi-New 2-CG
   NFREE  =      0    steps in history (QN), initial steepest desc. (CG)
   ISIF   =      2    stress and relaxation
   IWAVPR =     10    prediction:  0-non 1-charg 2-wave 3-comb
   ISYM   =      2    0-nonsym 1-usesym 2-fastsym
   LCORR  =      T    Harris-Foulkes like correction to forces

   POTIM  = 0.5000    time-step for ionic-motion
   TEIN   =    0.0    initial temperature
   TEBEG  =    0.0;   TEEND  =   0.0 temperature during run
   SMASS  =  -3.00    Nose mass-parameter (am)
   estimated Nose-frequenzy (Omega)   =  0.10E-29 period in steps =****** mass=  -0.215E-26a.u.
   SCALEE = 1.0000    scale energy and forces
   NPACO  =    256;   APACO  = 16.0  distance and # of slots for P.C.
   PSTRESS=    0.0 pullay stress

  Mass of Ions in am
   POMASS =  16.00 54.94
  Ionic Valenz
   ZVAL   =   6.00  7.00
  Atomic Wigner-Seitz radii
   RWIGS  =  -1.00 -1.00
  virtual crystal weights 
   VCA    =   1.00  1.00
   NELECT =     310.0000    total number of electrons
   NUPDOWN=      -1.0000    fix difference up-down

 DOS related values:
   EMIN   =  10.00;   EMAX   =-10.00  energy-range for DOS
   EFERMI =   0.00
   ISMEAR =    -5;   SIGMA  =   0.20  broadening in eV -4-tet -1-fermi 0-gaus

 Electronic relaxation 2 (details)
   IALGO  =     38    algorithm
   LDIAG  =      T    sub-space diagonalisation (order eigenvalues)
   LSUBROT=      T    optimize rotation matrix (better conditioning)
   TURBO    =      0    0=normal 1=particle mesh
   IRESTART =      0    0=no restart 2=restart with 2 vectors
   NREBOOT  =      0    no. of reboots
   NMIN     =      0    reboot dimension
   EREF     =   0.00    reference energy to select bands
   IMIX   =      4    mixing-type and parameters
     AMIX     =   0.40;   BMIX     =  1.00
     AMIX_MAG =   1.60;   BMIX_MAG =  1.00
     AMIN     =   0.10
     WC   =   100.;   INIMIX=   1;  MIXPRE=   1;  MAXMIX= -45

 Intra band minimization:
   WEIMIN = 0.0000     energy-eigenvalue tresh-hold
   EBREAK =  0.13E-06  absolut break condition
   DEPER  =   0.30     relativ break condition  

   TIME   =   0.40     timestep for ELM

  volume/ion in A,a.u.               =      16.53       111.52
  Fermi-wavevector in a.u.,A,eV,Ry     =   1.188707  2.246331 19.225374  1.413025
  Thomas-Fermi vector in A             =   2.324831
 
 Write flags
   LWAVE  =      F    write WAVECAR
   LCHARG =      T    write CHGCAR
   LVTOT  =      F    write LOCPOT, total local potential
   LVHAR  =      F    write LOCPOT, Hartree potential only
   LELF   =      F    write electronic localiz. function (ELF)
   LORBIT =      0    0 simple, 1 ext, 2 COOP (PROOUT)


 Dipole corrections
   LMONO  =      F    monopole corrections only (constant potential shift)
   LDIPOL =      F    correct potential (dipole corrections)
   IDIPOL =      0    1-x, 2-y, 3-z, 4-all directions 
   EPSILON=  1.0000000 bulk dielectric constant

 Exchange correlation treatment:
   GGA     =    PS    GGA type
   LEXCH   =    14    internal setting for exchange type
   VOSKOWN=      1    Vosko Wilk Nusair interpolation
   LHFCALC =     F    Hartree Fock is set to
   LHFONE  =     F    Hartree Fock one center treatment
   AEXX    =    0.0000 exact exchange contribution

 Linear response parameters
   LEPSILON=     F    determine dielectric tensor
   LRPA    =     F    only Hartree local field effects (RPA)
   LNABLA  =     F    use nabla operator in PAW spheres
   LVEL    =     F    velocity operator in full k-point grid
   LINTERFAST=   F  fast interpolation
   KINTER  =     0    interpolate to denser k-point grid
   CSHIFT  =0.1000    complex shift for real part using Kramers Kronig
   OMEGAMAX=  -1.0    maximum frequency
   DEG_THRESHOLD= 0.2000000E-02 threshold for treating states as degnerate
   RTIME   =    0.100 relaxation time in fs

 Orbital magnetization related:
   ORBITALMAG=     F  switch on orbital magnetization
   LCHIMAG   =     F  perturbation theory with respect to B field
   DQ        =  0.001000  dq finite difference perturbation B field



--------------------------------------------------------------------------------------------------------


 Static calculation
 charge density and potential will be updated during run
 spin polarized calculation
 Variant of blocked Davidson
 Davidson routine will perform the subspace rotation
 perform sub-space diagonalisation
    after iterative eigenvector-optimisation
 modified Broyden-mixing scheme, WC =      100.0
 initial mixing is a Kerker type mixing with AMIX =  0.4000 and BMIX =      1.0000
 Hartree-type preconditioning will be used
 using additional bands           37
 reciprocal scheme for non local part
 use partial core corrections
 calculate Harris-corrections to forces 
   (improved forces if not selfconsistent)
 use gradient corrections 
 use of overlap-Matrix (Vanderbilt PP)
 Fermi weights with tetrahedron method with Bloechl corrections


--------------------------------------------------------------------------------------------------------


  energy-cutoff  :      520.00
  volume of cell :      809.77
      direct lattice vectors                 reciprocal lattice vectors
     9.694590000  0.000000000  0.000000000     0.103150314  0.000000000  0.000000000
     0.000000000  2.841300000  0.000000000     0.000000000  0.351951571  0.000000000
     0.000000000  0.000000000 29.397800000     0.000000000  0.000000000  0.034016151

  length of vectors
     9.694590000  2.841300000 29.397800000     0.103150314  0.351951571  0.034016151


 
 k-points in units of 2pi/SCALE and weight: Automatic mesh                          
   0.00000000  0.00000000  0.00000000       0.037
   0.03438344  0.00000000  0.00000000       0.074
   0.00000000  0.03910573  0.00000000       0.074
   0.03438344  0.03910573  0.00000000       0.148
   0.00000000  0.07821146  0.00000000       0.074
   0.03438344  0.07821146  0.00000000       0.148
   0.00000000  0.11731719  0.00000000       0.074
   0.03438344  0.11731719  0.00000000       0.148
   0.00000000  0.15642292  0.00000000       0.074
   0.03438344  0.15642292  0.00000000       0.148
 
 k-points in reciprocal lattice and weights: Automatic mesh                          
   0.00000000  0.00000000  0.00000000       0.037
   0.33333333  0.00000000  0.00000000       0.074
   0.00000000  0.11111111  0.00000000       0.074
   0.33333333  0.11111111  0.00000000       0.148
   0.00000000  0.22222222  0.00000000       0.074
   0.33333333  0.22222222  0.00000000       0.148
   0.00000000  0.33333333  0.00000000       0.074
   0.33333333  0.33333333  0.00000000       0.148
   0.00000000  0.44444444  0.00000000       0.074
   0.33333333  0.44444444  0.00000000       0.148
 
 position of ions in fractional coordinates (direct lattice) 
   0.34109858  0.50000000  0.15968037
   0.15589130  0.00000000  0.43199983
   0.15587110  0.00000000  0.76212686
   0.65852726  0.50000000  0.26693023
   0.65587110  0.50000000  0.59716724
   0.84452190  0.00000000  0.23629254
   0.84412890  0.00000000  0.56779239
   0.34423684  0.50000000  0.40211824
   0.34412890  0.50000000  0.73275201
   0.79798863  0.00000000  0.44804538
   0.79640666  0.00000000  0.77851746
   0.29254269  0.50000000  0.28323930
   0.29640666  0.50000000  0.61355784
   0.20669981  0.00000000  0.22075809
   0.20359334  0.00000000  0.55140178
   0.70467731  0.50000000  0.38542451
   0.70359334  0.50000000  0.71636141
   0.16236491  0.00000000  0.34790812
   0.16131429  0.00000000  0.67807526
   0.65796434  0.50000000  0.18397490
   0.66131429  0.50000000  0.51311563
   0.83872564  0.00000000  0.32081680
   0.83868571  0.00000000  0.65184399
   0.33865561  0.50000000  0.48648272
   0.33868571  0.50000000  0.81680361
   0.54254460  0.00000000  0.44475305
   0.54140968  0.00000000  0.77509190
   0.04057685  0.50000000  0.28054071
   0.04140968  0.50000000  0.61013228
   0.45675763  0.00000000  0.22713008
   0.45859032  0.00000000  0.55482734
   0.95987614  0.50000000  0.38760085
   0.95859032  0.50000000  0.71978697
   0.34758194  0.00000000  0.44454932
   0.34778547  0.00000000  0.77511205
   0.84787208  0.50000000  0.27898158
   0.84778547  0.50000000  0.61015243
   0.65403919  0.00000000  0.22200975
   0.65221453  0.00000000  0.55480720
   0.15108680  0.50000000  0.38941601
   0.15221453  0.50000000  0.71976682
   0.83327045  0.00000000  0.38383685
   0.83243150  0.00000000  0.71487697
   0.33534270  0.50000000  0.21402918
   0.33243150  0.50000000  0.54991735
   0.16945512  0.00000000  0.28456034
   0.16756850  0.00000000  0.61504227
   0.66848384  0.50000000  0.44920245
   0.66756850  0.50000000  0.78000189
 
 position of ions in cartesian coordinates  (Angst):
   3.30681084  1.42065000  4.69425143
   1.51130226  0.00000000 12.69984470
   1.51110641  0.00000000 22.40485300
   6.38415181  1.42065000  7.84716153
   6.35840141  1.42065000 17.55540309
   8.18729359  0.00000000  6.94648069
   8.18348359  0.00000000 16.69184712
   3.33723504  1.42065000 11.82139149
   3.33618859  1.42065000 21.54129704
   7.73617255  0.00000000 13.17154840
   7.72083604  0.00000000 22.88670059
   2.83608142  1.42065000  8.32661234
   2.87354104  1.42065000 18.03725067
   2.00386996  0.00000000  6.48980209
   1.97375396  0.00000000 16.20999925
   6.83155762  1.42065000 11.33063257
   6.82104896  1.42065000 21.05944946
   1.57406119  0.00000000 10.22773331
   1.56387590  0.00000000 19.93392088
   6.37869453  1.42065000  5.40845728
   6.41117090  1.42065000 15.08447067
   8.13110116  0.00000000  9.43130826
   8.13071410  0.00000000 19.16277925
   3.28312729  1.42065000 14.30152169
   3.28341910  1.42065000 24.01222917
   5.25974742  0.00000000 13.07476121
   5.24874487  0.00000000 22.78599666
   0.39337593  1.42065000  8.24727978
   0.40144987  1.42065000 17.93654674
   4.42807798  0.00000000  6.67712477
   4.44584513  0.00000000 16.31070318
   9.30560563  1.42065000 11.39461213
   9.29314013  1.42065000 21.16015339
   3.36966438  0.00000000 13.06877191
   3.37163754  0.00000000 22.78658902
   8.21977218  1.42065000  8.20144468
   8.21893254  1.42065000 17.93713911
   6.34064182  0.00000000  6.52659822
   6.32295246  0.00000000 16.31011110
   1.46472456  1.42065000 11.44797384
   1.47565746  1.42065000 21.15956102
   8.07821534  0.00000000 11.28395893
   8.07008210  0.00000000 21.01581019
   3.25101000  1.42065000  6.29198692
   3.22278710  1.42065000 16.16636027
   1.64279794  0.00000000  8.36544807
   1.62450790  0.00000000 18.08088965
   6.48067674  1.42065000 13.20556393
   6.47180290  1.42065000 22.93033956
 


--------------------------------------------------------------------------------------------------------


 k-point  1 :   0.0000 0.0000 0.0000  plane waves:   21819
 k-point  2 :   0.3333 0.0000 0.0000  plane waves:   21868
 k-point  3 :   0.0000 0.1111 0.0000  plane waves:   21841
 k-point  4 :   0.3333 0.1111 0.0000  plane waves:   21838
 k-point  5 :   0.0000 0.2222 0.0000  plane waves:   21773
 k-point  6 :   0.3333 0.2222 0.0000  plane waves:   21785
 k-point  7 :   0.0000 0.3333 0.0000  plane waves:   21738
 k-point  8 :   0.3333 0.3333 0.0000  plane waves:   21767
 k-point  9 :   0.0000 0.4444 0.0000  plane waves:   21786
 k-point 10 :   0.3333 0.4444 0.0000  plane waves:   21805

 maximum and minimum number of plane-waves per node :      5535     5392

 maximum number of plane-waves:     21868
 maximum index in each direction: 
   IXMAX=   18   IYMAX=    5   IZMAX=   54
   IXMIN=  -18   IYMIN=   -5   IZMIN=  -54

 WARNING: aliasing errors must be expected set NGX to  74 to avoid them
 WARNING: aliasing errors must be expected set NGY to  22 to avoid them
 WARNING: aliasing errors must be expected set NGZ to 218 to avoid them
 aliasing errors are usually negligible using standard VASP settings
 and one can safely disregard these warnings

 parallel 3D FFT for wavefunctions:
    minimum data exchange during FFTs selected (reduces bandwidth)
 parallel 3D FFT for charge:
    minimum data exchange during FFTs selected (reduces bandwidth)


 total amount of memory used by VASP on root node   102446. kBytes
========================================================================

   base      :      30000. kBytes
   nonl-proj :      19990. kBytes
   fftplans  :       2570. kBytes
   grid      :       6474. kBytes
   one-center:        404. kBytes
   wavefun   :      43008. kBytes
 
 Broyden mixing: mesh for mixing (old mesh)
   NGX = 37   NGY = 11   NGZ =109
  (NGX  =108   NGY  = 32   NGZ  =336)
  gives a total of  44363 points

 initial charge density was supplied:
 charge density of overlapping atoms calculated
 number of electron     310.0000000 magnetization       0.0000000
 keeping initial charge density in first step


--------------------------------------------------------------------------------------------------------


 Maximum index for augmentation-charges          368 (set IRDMAX)


--------------------------------------------------------------------------------------------------------


 First call to EWALD:  gamma=   0.190
 Maximum number of real-space cells 3x 8x 1
 Maximum number of reciprocal cells 3x 1x 8

 FEWALD executed in parallel
    FEWALD:  cpu time    0.00: real time    0.00


----------------------------------------- Iteration    1(   1)  ---------------------------------------


    POTLOK:  cpu time    0.08: real time    0.08
    SETDIJ:  cpu time    0.01: real time    0.01
     EDDAV:  cpu time   16.02: real time   16.03
 BZINTS: Fermi energy: 19.854787;310.000000 electrons
         Band energy:2813.115234;  BLOECHL correction: -0.163651
       DOS:  cpu time    0.03: real time    0.03
    --------------------------------------------
      LOOP:  cpu time   16.14: real time   16.21

 eigenvalue-minimisations  :  7744
 total energy-change (2. order) : 0.4950325E+04  (-0.1295375E+05)
 number of electron     310.0000000 magnetization       0.0000000
 augmentation part      310.0000000 magnetization       0.0000000

 Free energy of the ion-electron system (eV)
  ---------------------------------------------------
  alpha Z        PSCENC =       775.65410562
  Ewald energy   TEWEN  =     72365.38102372
  -1/2 Hartree   DENC   =    -92830.24289253
  -exchange  EXHF       =         0.00000000
  -V(xc)+E(xc)   XCENC  =       769.69999169
  PAW double counting   =     17889.32420403   -17705.52277445
  entropy T*S    EENTRO =         0.00000000
  eigenvalues    EBANDS =      2813.11523388
  atomic energy  EATOM  =     20872.91649420
  ---------------------------------------------------
  free energy    TOTEN  =      4950.32538616 eV

  energy without entropy =     4950.32538616  energy(sigma->0) =     4950.32538616


--------------------------------------------------------------------------------------------------------




----------------------------------------- Iteration    1(   2)  ---------------------------------------


     EDDAV:  cpu time   16.14: real time   16.16
 BZINTS: Fermi energy:  6.373488;310.000000 electrons
         Band energy:***********;  BLOECHL correction: -0.021935
       DOS:  cpu time    0.03: real time    0.03
    --------------------------------------------
      LOOP:  cpu time   16.17: real time   16.27

 eigenvalue-minimisations  :  7840
 total energy-change (2. order) :-0.3958040E+04  (-0.3750944E+04)
 number of electron     310.0000000 magnetization       0.0000000
 augmentation part      310.0000000 magnetization       0.0000000

 Free energy of the ion-electron system (eV)
  ---------------------------------------------------
  alpha Z        PSCENC =       775.65410562
  Ewald energy   TEWEN  =     72365.38102372
  -1/2 Hartree   DENC   =    -92830.24289253
  -exchange  EXHF       =         0.00000000
  -V(xc)+E(xc)   XCENC  =       769.69999169
  PAW double counting   =     17889.32420403   -17705.52277445
  entropy T*S    EENTRO =         0.00000000
  eigenvalues    EBANDS =     -1144.92452669
  atomic energy  EATOM  =     20872.91649420
  ---------------------------------------------------
  free energy    TOTEN  =       992.28562559 eV

  energy without entropy =      992.28562559  energy(sigma->0) =      992.28562559


--------------------------------------------------------------------------------------------------------




----------------------------------------- Iteration    1(   3)  ---------------------------------------


     EDDAV:  cpu time   23.03: real time   23.05
 BZINTS: Fermi energy:  2.913237;310.000000 electrons
         Band energy:***********;  BLOECHL correction: -0.030482
       DOS:  cpu time    0.02: real time    0.03
    --------------------------------------------
      LOOP:  cpu time   23.05: real time   23.15

 eigenvalue-minimisations  : 12376
 total energy-change (2. order) :-0.1316182E+04  (-0.1240029E+04)
 number of electron     310.0000000 magnetization       0.0000000
 augmentation part      310.0000000 magnetization       0.0000000

 Free energy of the ion-electron system (eV)
  ---------------------------------------------------
  alpha Z        PSCENC =       775.65410562
  Ewald energy   TEWEN  =     72365.38102372
  -1/2 Hartree   DENC   =    -92830.24289253
  -exchange  EXHF       =         0.00000000
  -V(xc)+E(xc)   XCENC  =       769.69999169
  PAW double counting   =     17889.32420403   -17705.52277445
  entropy T*S    EENTRO =         0.00000000
  eigenvalues    EBANDS =     -2461.10642299
  atomic energy  EATOM  =     20872.91649420
  ---------------------------------------------------
  free energy    TOTEN  =      -323.89627071 eV

  energy without entropy =     -323.89627071  energy(sigma->0) =     -323.89627071


--------------------------------------------------------------------------------------------------------




----------------------------------------- Iteration    1(   4)  ---------------------------------------


     EDDAV:  cpu time   22.51: real time   22.53
 BZINTS: Fermi energy:  1.788080;310.000000 electrons
         Band energy:***********;  BLOECHL correction: -0.009993
       DOS:  cpu time    0.03: real time    0.03
    --------------------------------------------
      LOOP:  cpu time   22.54: real time   22.74

 eigenvalue-minimisations  : 12072
 total energy-change (2. order) :-0.1989930E+03  (-0.1943569E+03)
 number of electron     310.0000000 magnetization       0.0000000
 augmentation part      310.0000000 magnetization       0.0000000

 Free energy of the ion-electron system (eV)
  ---------------------------------------------------
  alpha Z        PSCENC =       775.65410562
  Ewald energy   TEWEN  =     72365.38102372
  -1/2 Hartree   DENC   =    -92830.24289253
  -exchange  EXHF       =         0.00000000
  -V(xc)+E(xc)   XCENC  =       769.69999169
  PAW double counting   =     17889.32420403   -17705.52277445
  entropy T*S    EENTRO =         0.00000000
  eigenvalues    EBANDS =     -2660.09946539
  atomic energy  EATOM  =     20872.91649420
  ---------------------------------------------------
  free energy    TOTEN  =      -522.88931311 eV

  energy without entropy =     -522.88931311  energy(sigma->0) =     -522.88931311


--------------------------------------------------------------------------------------------------------




----------------------------------------- Iteration    1(   5)  ---------------------------------------


     EDDAV:  cpu time   22.73: real time   22.75
 BZINTS: Fermi energy:  1.685378;310.000000 electrons
         Band energy:***********;  BLOECHL correction: -0.011965
       DOS:  cpu time    0.03: real time    0.03
    CHARGE:  cpu time    0.42: real time    0.42
    MIXING:  cpu time    0.00: real time    0.00
    --------------------------------------------
      LOOP:  cpu time   23.19: real time   23.28

 eigenvalue-minimisations  : 12208
 total energy-change (2. order) :-0.8694785E+01  (-0.8494473E+01)
 number of electron     310.0000418 magnetization      -0.0882548
 augmentation part       60.0430471 magnetization       0.4393630

 Broyden mixing:
  rms(total) = 0.11863E+02    rms(broyden)= 0.11862E+02
  rms(prec ) = 0.12107E+02
  weight for this iteration     100.00

 Free energy of the ion-electron system (eV)
  ---------------------------------------------------
  alpha Z        PSCENC =       775.65410562
  Ewald energy   TEWEN  =     72365.38102372
  -1/2 Hartree   DENC   =    -92830.24289253
  -exchange  EXHF       =         0.00000000
  -V(xc)+E(xc)   XCENC  =       769.69999169
  PAW double counting   =     17889.32420403   -17705.52277445
  entropy T*S    EENTRO =         0.00000000
  eigenvalues    EBANDS =     -2668.79425076
  atomic energy  EATOM  =     20872.91649420
  ---------------------------------------------------
  free energy    TOTEN  =      -531.58409848 eV

  energy without entropy =     -531.58409848  energy(sigma->0) =     -531.58409848


--------------------------------------------------------------------------------------------------------




----------------------------------------- Iteration    1(   6)  ---------------------------------------


    POTLOK:  cpu time    0.08: real time    0.08
    SETDIJ:  cpu time    0.01: real time    0.01
     EDDAV:  cpu time   24.02: real time   24.05
 BZINTS: Fermi energy: -2.288231;310.000000 electrons
         Band energy:***********;  BLOECHL correction: -0.055711
       DOS:  cpu time    0.03: real time    0.03
    CHARGE:  cpu time    0.42: real time    0.42
    MIXING:  cpu time    0.00: real time    0.00
    --------------------------------------------
      LOOP:  cpu time   24.56: real time   24.98

 eigenvalue-minimisations  : 13024
 total energy-change (2. order) :-0.1266176E+02  (-0.1593993E+03)
 number of electron     310.0000148 magnetization      -0.0886772
 augmentation part       99.0978974 magnetization      -0.5911112

 Broyden mixing:
  rms(total) = 0.19441E+02    rms(broyden)= 0.19440E+02
  rms(prec ) = 0.20200E+02
  weight for this iteration     100.00

 eigenvalues of (default mixing * dielectric matrix)
  average eigenvalue GAMMA=   0.2163
  0.2163

 Free energy of the ion-electron system (eV)
  ---------------------------------------------------
  alpha Z        PSCENC =       775.65410562
  Ewald energy   TEWEN  =     72365.38102372
  -1/2 Hartree   DENC   =    -92862.21154241
  -exchange  EXHF       =         0.00000000
  -V(xc)+E(xc)   XCENC  =       799.37791398
  PAW double counting   =     21357.68718410   -21133.60045072
  entropy T*S    EENTRO =         0.00000000
  eigenvalues    EBANDS =     -2719.45059010
  atomic energy  EATOM  =     20872.91649420
  ---------------------------------------------------
  free energy    TOTEN  =      -544.24586161 eV

  energy without entropy =     -544.24586161  energy(sigma->0) =     -544.24586161


--------------------------------------------------------------------------------------------------------




----------------------------------------- Iteration    1(   7)  ---------------------------------------


    POTLOK:  cpu time    0.07: real time    0.08
    SETDIJ:  cpu time    0.01: real time    0.01
     EDDAV:  cpu time   27.13: real time   27.15
 BZINTS: Fermi energy:  0.343469;310.000000 electrons
         Band energy:***********;  BLOECHL correction: -0.017819
       DOS:  cpu time    0.03: real time    0.03
    CHARGE:  cpu time    0.43: real time    0.43
    MIXING:  cpu time    0.00: real time    0.00
    --------------------------------------------
      LOOP:  cpu time   27.68: real time   27.78

 eigenvalue-minimisations  : 15048
 total energy-change (2. order) : 0.7720093E+02  (-0.8001826E+02)
 number of electron     310.0000260 magnetization      -0.0862552
 augmentation part       70.9504853 magnetization      -0.2807653

 Broyden mixing:
  rms(total) = 0.14735E+02    rms(broyden)= 0.14735E+02
  rms(prec ) = 0.17687E+02
  weight for this iteration     100.00

 eigenvalues of (default mixing * dielectric matrix)
  average eigenvalue GAMMA=   0.2372
  0.2372  0.2372

 Free energy of the ion-electron system (eV)
  ---------------------------------------------------
  alpha Z        PSCENC =       775.65410562
  Ewald energy   TEWEN  =     72365.38102372
  -1/2 Hartree   DENC   =    -93166.90861720
  -exchange  EXHF       =         0.00000000
  -V(xc)+E(xc)   XCENC  =       776.92047917
  PAW double counting   =     22276.63468217   -22092.74370056
  entropy T*S    EENTRO =         0.00000000
  eigenvalues    EBANDS =     -2274.89939502
  atomic energy  EATOM  =     20872.91649420
  ---------------------------------------------------
  free energy    TOTEN  =      -467.04492791 eV

  energy without entropy =     -467.04492791  energy(sigma->0) =     -467.04492791


--------------------------------------------------------------------------------------------------------




----------------------------------------- Iteration    1(   8)  ---------------------------------------


    POTLOK:  cpu time    0.08: real time    0.08
    SETDIJ:  cpu time    0.01: real time    0.01
     EDDAV:  cpu time   26.21: real time   26.23
 BZINTS: Fermi energy: -0.566293;310.000000 electrons
         Band energy:***********;  BLOECHL correction: -0.025624
       DOS:  cpu time    0.03: real time    0.03
    CHARGE:  cpu time    0.43: real time    0.43
    MIXING:  cpu time    0.00: real time    0.00
    --------------------------------------------
      LOOP:  cpu time   26.75: real time   26.86

 eigenvalue-minimisations  : 14448
 total energy-change (2. order) :-0.1081746E+03  (-0.1830109E+03)
 number of electron     310.0000244 magnetization      -0.0753587
 augmentation part       78.5210837 magnetization      -0.5305546

 Broyden mixing:
  rms(total) = 0.18633E+02    rms(broyden)= 0.18632E+02
  rms(prec ) = 0.24989E+02
  weight for this iteration     100.00

 eigenvalues of (default mixing * dielectric matrix)
  average eigenvalue GAMMA=   0.2670
  0.3666  0.3666  0.0677

 Free energy of the ion-electron system (eV)
  ---------------------------------------------------
  alpha Z        PSCENC =       775.65410562
  Ewald energy   TEWEN  =     72365.38102372
  -1/2 Hartree   DENC   =    -92886.73014373
  -exchange  EXHF       =         0.00000000
  -V(xc)+E(xc)   XCENC  =       773.50703748
  PAW double counting   =     22696.44110235   -22515.57494273
  entropy T*S    EENTRO =         0.00000000
  eigenvalues    EBANDS =     -2656.81423741
  atomic energy  EATOM  =     20872.91649420
  ---------------------------------------------------
  free energy    TOTEN  =      -575.21956050 eV

  energy without entropy =     -575.21956050  energy(sigma->0) =     -575.21956050


--------------------------------------------------------------------------------------------------------




----------------------------------------- Iteration    1(   9)  ---------------------------------------


    POTLOK:  cpu time    0.08: real time    0.08
    SETDIJ:  cpu time    0.01: real time    0.01
     EDDAV:  cpu time   26.40: real time   26.43
 BZINTS: Fermi energy: -1.208182;310.000000 electrons
         Band energy:***********;  BLOECHL correction: -0.017858
       DOS:  cpu time    0.03: real time    0.03
    CHARGE:  cpu time    0.43: real time    0.42
    MIXING:  cpu time    0.00: real time    0.00
    --------------------------------------------
      LOOP:  cpu time   26.95: real time   27.06

 eigenvalue-minimisations  : 14576
 total energy-change (2. order) : 0.5561700E+01  (-0.9866432E+02)
 number of electron     310.0000242 magnetization      -0.0771718
 augmentation part       74.7487430 magnetization       0.2754006

 Broyden mixing:
  rms(total) = 0.19860E+02    rms(broyden)= 0.19859E+02
  rms(prec ) = 0.23486E+02
  weight for this iteration     100.00

 eigenvalues of (default mixing * dielectric matrix)
  average eigenvalue GAMMA=   0.2943
  0.4988  0.4988  0.1164  0.0634

 Free energy of the ion-electron system (eV)
  ---------------------------------------------------
  alpha Z        PSCENC =       775.65410562
  Ewald energy   TEWEN  =     72365.38102372
  -1/2 Hartree   DENC   =    -92661.72269831
  -exchange  EXHF       =         0.00000000
  -V(xc)+E(xc)   XCENC  =       768.55550394
  PAW double counting   =     23673.66245653   -23497.88133711
  entropy T*S    EENTRO =         0.00000000
  eigenvalues    EBANDS =     -2866.22340895
  atomic energy  EATOM  =     20872.91649420
  ---------------------------------------------------
  free energy    TOTEN  =      -569.65786035 eV

  energy without entropy =     -569.65786035  energy(sigma->0) =     -569.65786035


--------------------------------------------------------------------------------------------------------




----------------------------------------- Iteration    1(  10)  ---------------------------------------


    POTLOK:  cpu time    0.08: real time    0.08
    SETDIJ:  cpu time    0.01: real time    0.01
     EDDAV:  cpu time   28.96: real time   29.20
 BZINTS: Fermi energy:  0.181963;310.000000 electrons
         Band energy:***********;  BLOECHL correction: -0.015088
       DOS:  cpu time    0.03: real time    0.03
    CHARGE:  cpu time    0.43: real time    0.43
    MIXING:  cpu time    0.00: real time    0.00
    --------------------------------------------
      LOOP:  cpu time   29.51: real time   29.95

 eigenvalue-minimisations  : 13488
 total energy-change (2. order) : 0.1254964E+03  (-0.1102620E+03)
 number of electron     310.0000244 magnetization      -0.0543158
 augmentation part       70.6140961 magnetization      -0.6027070

 Broyden mixing:
  rms(total) = 0.14535E+02    rms(broyden)= 0.14535E+02
  rms(prec ) = 0.15996E+02
  weight for this iteration     100.00

 eigenvalues of (default mixing * dielectric matrix)
  average eigenvalue GAMMA=   0.3768
  1.0066  0.4044  0.3156  0.0998  0.0574

 Free energy of the ion-electron system (eV)
  ---------------------------------------------------
  alpha Z        PSCENC =       775.65410562
  Ewald energy   TEWEN  =     72365.38102372
  -1/2 Hartree   DENC   =    -93054.14099782
  -exchange  EXHF       =         0.00000000
  -V(xc)+E(xc)   XCENC  =       762.48864849
  PAW double counting   =     25809.31647221   -25643.41440315
  entropy T*S    EENTRO =         0.00000000
  eigenvalues    EBANDS =     -2332.36282126
  atomic energy  EATOM  =     20872.91649420
  ---------------------------------------------------
  free energy    TOTEN  =      -444.16147800 eV

  energy without entropy =     -444.16147800  energy(sigma->0) =     -444.16147800


--------------------------------------------------------------------------------------------------------




----------------------------------------- Iteration    1(  11)  ---------------------------------------


    POTLOK:  cpu time    0.08: real time    0.08
    SETDIJ:  cpu time    0.01: real time    0.01
     EDDAV:  cpu time   26.17: real time   26.19
 BZINTS: Fermi energy: -0.824793;310.000000 electrons
         Band energy:***********;  BLOECHL correction: -0.020439
       DOS:  cpu time    0.03: real time    0.03
    CHARGE:  cpu time    0.43: real time    0.43
    MIXING:  cpu time    0.00: real time    0.00
    --------------------------------------------
      LOOP:  cpu time   26.71: real time   26.85

 eigenvalue-minimisations  : 14432
 total energy-change (2. order) :-0.4631606E+02  (-0.6524483E+02)
 number of electron     310.0000240 magnetization      -0.0467808
 augmentation part       73.2889042 magnetization       0.0003784

 Broyden mixing:
  rms(total) = 0.16511E+02    rms(broyden)= 0.16511E+02
  rms(prec ) = 0.19188E+02
  weight for this iteration     100.00

 eigenvalues of (default mixing * dielectric matrix)
  average eigenvalue GAMMA=   0.4624
  1.6339  0.4106  0.4106  0.1741  0.0851  0.0599

 Free energy of the ion-electron system (eV)
  ---------------------------------------------------
  alpha Z        PSCENC =       775.65410562
  Ewald energy   TEWEN  =     72365.38102372
  -1/2 Hartree   DENC   =    -92829.32358237
  -exchange  EXHF       =         0.00000000
  -V(xc)+E(xc)   XCENC  =       759.17117429
  PAW double counting   =     27489.79969981   -27330.69329872
  entropy T*S    EENTRO =         0.00000000
  eigenvalues    EBANDS =     -2593.38315385
  atomic energy  EATOM  =     20872.91649420
  ---------------------------------------------------
  free energy    TOTEN  =      -490.47753730 eV

  energy without entropy =     -490.47753730  energy(sigma->0) =     -490.47753730


--------------------------------------------------------------------------------------------------------




----------------------------------------- Iteration    1(  12)  ---------------------------------------


    POTLOK:  cpu time    0.08: real time    0.08
    SETDIJ:  cpu time    0.01: real time    0.01
     EDDAV:  cpu time   25.96: real time   25.97
 BZINTS: Fermi energy: -1.050800;310.000000 electrons
         Band energy:***********;  BLOECHL correction: -0.017270
       DOS:  cpu time    0.03: real time    0.03
    CHARGE:  cpu time    0.42: real time    0.42
    MIXING:  cpu time    0.00: real time    0.00
    --------------------------------------------
      LOOP:  cpu time   26.50: real time   26.61

 eigenvalue-minimisations  : 14288
 total energy-change (2. order) :-0.4291156E+02  (-0.3523443E+02)
 number of electron     310.0000281 magnetization      -0.0505616
 augmentation part       78.6514036 magnetization       0.0398489

 Broyden mixing:
  rms(total) = 0.12632E+02    rms(broyden)= 0.12632E+02
  rms(prec ) = 0.19063E+02
  weight for this iteration     100.00

 eigenvalues of (default mixing * dielectric matrix)
  average eigenvalue GAMMA=   0.4481
  1.5674  0.5949  0.3423  0.3423  0.1410  0.0894  0.0593

 Free energy of the ion-electron system (eV)
  ---------------------------------------------------
  alpha Z        PSCENC =       775.65410562
  Ewald energy   TEWEN  =     72365.38102372
  -1/2 Hartree   DENC   =    -92811.37553655
  -exchange  EXHF       =         0.00000000
  -V(xc)+E(xc)   XCENC  =       757.04646274
  PAW double counting   =     28614.57622386   -28460.79476275
  entropy T*S    EENTRO =         0.00000000
  eigenvalues    EBANDS =     -2646.79310541
  atomic energy  EATOM  =     20872.91649420
  ---------------------------------------------------
  free energy    TOTEN  =      -533.38909457 eV

  energy without entropy =     -533.38909457  energy(sigma->0) =     -533.38909457


--------------------------------------------------------------------------------------------------------




----------------------------------------- Iteration    1(  13)  ---------------------------------------


    POTLOK:  cpu time    0.08: real time    0.08
    SETDIJ:  cpu time    0.01: real time    0.01
     EDDAV:  cpu time   25.95: real time   25.97
 BZINTS: Fermi energy: -0.491557;310.000000 electrons
         Band energy:***********;  BLOECHL correction: -0.032802
       DOS:  cpu time    0.03: real time    0.03
    CHARGE:  cpu time    0.43: real time    0.43
    MIXING:  cpu time    0.00: real time    0.00
    --------------------------------------------
      LOOP:  cpu time   26.50: real time   26.70

 eigenvalue-minimisations  : 14288
 total energy-change (2. order) : 0.1188046E+03  (-0.5367600E+02)
 number of electron     310.0000251 magnetization      -0.0641733
 augmentation part       68.4023841 magnetization       0.1598052

 Broyden mixing:
  rms(total) = 0.70619E+01    rms(broyden)= 0.70602E+01
  rms(prec ) = 0.78335E+01
  weight for this iteration     100.00

 eigenvalues of (default mixing * dielectric matrix)
  average eigenvalue GAMMA=   0.4273
  1.5008  0.6226  0.4720  0.3410  0.1933  0.0591  0.0910  0.1385

 Free energy of the ion-electron system (eV)
  ---------------------------------------------------
  alpha Z        PSCENC =       775.65410562
  Ewald energy   TEWEN  =     72365.38102372
  -1/2 Hartree   DENC   =    -92906.60152297
  -exchange  EXHF       =         0.00000000
  -V(xc)+E(xc)   XCENC  =       756.73069112
  PAW double counting   =     28309.77120101   -28159.34281389
  entropy T*S    EENTRO =         0.00000000
  eigenvalues    EBANDS =     -2429.09364131
  atomic energy  EATOM  =     20872.91649420
  ---------------------------------------------------
  free energy    TOTEN  =      -414.58446249 eV

  energy without entropy =     -414.58446249  energy(sigma->0) =     -414.58446249


--------------------------------------------------------------------------------------------------------




----------------------------------------- Iteration    1(  14)  ---------------------------------------


    POTLOK:  cpu time    0.08: real time    0.08
    SETDIJ:  cpu time    0.01: real time    0.01
     EDDAV:  cpu time   25.88: real time   25.90
 BZINTS: Fermi energy: -0.408548;310.000000 electrons
         Band energy:***********;  BLOECHL correction: -0.014369
       DOS:  cpu time    0.03: real time    0.03
    CHARGE:  cpu time    0.42: real time    0.42
    MIXING:  cpu time    0.00: real time    0.00
    --------------------------------------------
      LOOP:  cpu time   26.42: real time   26.52

 eigenvalue-minimisations  : 14248
 total energy-change (2. order) :-0.1752274E+02  (-0.4012214E+02)
 number of electron     310.0000347 magnetization      -0.0752837
 augmentation part       68.9026776 magnetization       0.2731857

 Broyden mixing:
  rms(total) = 0.84478E+01    rms(broyden)= 0.84471E+01
  rms(prec ) = 0.97049E+01
  weight for this iteration     100.00

 eigenvalues of (default mixing * dielectric matrix)
  average eigenvalue GAMMA=   0.4066
  1.5738  0.5740  0.5740  0.3317  0.1712  0.1712  0.0592  0.0906  0.1139

 Free energy of the ion-electron system (eV)
  ---------------------------------------------------
  alpha Z        PSCENC =       775.65410562
  Ewald energy   TEWEN  =     72365.38102372
  -1/2 Hartree   DENC   =    -92971.95902285
  -exchange  EXHF       =         0.00000000
  -V(xc)+E(xc)   XCENC  =       756.86612652
  PAW double counting   =     27986.10069790   -27833.92552575
  entropy T*S    EENTRO =         0.00000000
  eigenvalues    EBANDS =     -2383.14110611
  atomic energy  EATOM  =     20872.91649420
  ---------------------------------------------------
  free energy    TOTEN  =      -432.10720675 eV

  energy without entropy =     -432.10720675  energy(sigma->0) =     -432.10720675


--------------------------------------------------------------------------------------------------------




----------------------------------------- Iteration    1(  15)  ---------------------------------------


    POTLOK:  cpu time    0.08: real time    0.08
    SETDIJ:  cpu time    0.01: real time    0.01
     EDDAV:  cpu time   25.77: real time   25.79
 BZINTS: Fermi energy: -0.598872;310.000000 electrons
         Band energy:***********;  BLOECHL correction: -0.040491
       DOS:  cpu time    0.03: real time    0.03
    CHARGE:  cpu time    0.43: real time    0.43
    MIXING:  cpu time    0.00: real time    0.00
    --------------------------------------------
      LOOP:  cpu time   26.32: real time   26.47

 eigenvalue-minimisations  : 14184
 total energy-change (2. order) : 0.2430117E+02  (-0.1325843E+02)
 number of electron     310.0000319 magnetization      -0.0797239
 augmentation part       68.4571949 magnetization       0.1190923

 Broyden mixing:
  rms(total) = 0.62353E+01    rms(broyden)= 0.62347E+01
  rms(prec ) = 0.67982E+01
  weight for this iteration     100.00

 eigenvalues of (default mixing * dielectric matrix)
  average eigenvalue GAMMA=   0.3784
  1.4714  0.5970  0.5970  0.2987  0.2200  0.2200  0.0592  0.1316  0.0899  0.0989

 Free energy of the ion-electron system (eV)
  ---------------------------------------------------
  alpha Z        PSCENC =       775.65410562
  Ewald energy   TEWEN  =     72365.38102372
  -1/2 Hartree   DENC   =    -92927.01856579
  -exchange  EXHF       =         0.00000000
  -V(xc)+E(xc)   XCENC  =       757.15770071
  PAW double counting   =     28066.89023930   -27914.55756388
  entropy T*S    EENTRO =         0.00000000
  eigenvalues    EBANDS =     -2404.22946778
  atomic energy  EATOM  =     20872.91649420
  ---------------------------------------------------
  free energy    TOTEN  =      -407.80603391 eV

  energy without entropy =     -407.80603391  energy(sigma->0) =     -407.80603391


--------------------------------------------------------------------------------------------------------




----------------------------------------- Iteration    1(  16)  ---------------------------------------


    POTLOK:  cpu time    0.07: real time    0.08
    SETDIJ:  cpu time    0.01: real time    0.01
     EDDAV:  cpu time   25.55: real time   25.57
 BZINTS: Fermi energy: -0.504057;310.000000 electrons
         Band energy:***********;  BLOECHL correction: -0.042510
       DOS:  cpu time    0.03: real time    0.03
    CHARGE:  cpu time    0.43: real time    0.43
    MIXING:  cpu time    0.00: real time    0.00
    --------------------------------------------
      LOOP:  cpu time   26.10: real time   26.21

 eigenvalue-minimisations  : 14056
 total energy-change (2. order) : 0.4262693E+01  (-0.6130687E+01)
 number of electron     310.0000298 magnetization      -0.0788512
 augmentation part       68.2005835 magnetization      -0.0569030

 Broyden mixing:
  rms(total) = 0.59648E+01    rms(broyden)= 0.59642E+01
  rms(prec ) = 0.63487E+01
  weight for this iteration     100.00

 eigenvalues of (default mixing * dielectric matrix)
  average eigenvalue GAMMA=   0.3564
  1.3082  0.6402  0.6402  0.2944  0.2944  0.2798  0.1438  0.1027  0.0903  0.0592
  0.0673

 Free energy of the ion-electron system (eV)
  ---------------------------------------------------
  alpha Z        PSCENC =       775.65410562
  Ewald energy   TEWEN  =     72365.38102372
  -1/2 Hartree   DENC   =    -92913.38229984
  -exchange  EXHF       =         0.00000000
  -V(xc)+E(xc)   XCENC  =       757.28667270
  PAW double counting   =     27855.88181782   -27702.28886481
  entropy T*S    EENTRO =         0.00000000
  eigenvalues    EBANDS =     -2414.99229069
  atomic energy  EATOM  =     20872.91649420
  ---------------------------------------------------
  free energy    TOTEN  =      -403.54334129 eV

  energy without entropy =     -403.54334129  energy(sigma->0) =     -403.54334129


--------------------------------------------------------------------------------------------------------




----------------------------------------- Iteration    1(  17)  ---------------------------------------


    POTLOK:  cpu time    0.07: real time    0.08
    SETDIJ:  cpu time    0.01: real time    0.01
     EDDAV:  cpu time   26.15: real time   26.16
 BZINTS: Fermi energy: -0.592304;310.000000 electrons
         Band energy:***********;  BLOECHL correction: -0.042769
       DOS:  cpu time    0.03: real time    0.03
    CHARGE:  cpu time    0.43: real time    0.43
    MIXING:  cpu time    0.00: real time    0.00
    --------------------------------------------
      LOOP:  cpu time   26.69: real time   26.93

 eigenvalue-minimisations  : 14440
 total energy-change (2. order) : 0.2116834E+01  (-0.4169586E+01)
 number of electron     310.0000307 magnetization      -0.0774665
 augmentation part       68.0550282 magnetization       0.0420277

 Broyden mixing:
  rms(total) = 0.53580E+01    rms(broyden)= 0.53575E+01
  rms(prec ) = 0.56353E+01
  weight for this iteration     100.00

 eigenvalues of (default mixing * dielectric matrix)
  average eigenvalue GAMMA=   0.3334
  1.2760  0.6364  0.6364  0.3107  0.3107  0.2815  0.1436  0.1028  0.1028  0.0907
  0.0592  0.0498

 Free energy of the ion-electron system (eV)
  ---------------------------------------------------
  alpha Z        PSCENC =       775.65410562
  Ewald energy   TEWEN  =     72365.38102372
  -1/2 Hartree   DENC   =    -92920.55431015
  -exchange  EXHF       =         0.00000000
  -V(xc)+E(xc)   XCENC  =       757.69296123
  PAW double counting   =     27532.49685071   -27377.27423437
  entropy T*S    EENTRO =         0.00000000
  eigenvalues    EBANDS =     -2407.73939873
  atomic energy  EATOM  =     20872.91649420
  ---------------------------------------------------
  free energy    TOTEN  =      -401.42650777 eV

  energy without entropy =     -401.42650777  energy(sigma->0) =     -401.42650777


--------------------------------------------------------------------------------------------------------




----------------------------------------- Iteration    1(  18)  ---------------------------------------


    POTLOK:  cpu time    0.08: real time    0.08
    SETDIJ:  cpu time    0.01: real time    0.01
     EDDAV:  cpu time   24.80: real time   24.82
 BZINTS: Fermi energy: -0.655495;310.000000 electrons
         Band energy:***********;  BLOECHL correction: -0.051513
       DOS:  cpu time    0.03: real time    0.03
    CHARGE:  cpu time    0.43: real time    0.43
    MIXING:  cpu time    0.00: real time    0.01
    --------------------------------------------
      LOOP:  cpu time   25.35: real time   25.44

 eigenvalue-minimisations  : 13552
 total energy-change (2. order) : 0.4209015E+01  (-0.1623815E+01)
 number of electron     310.0000303 magnetization      -0.0747742
 augmentation part       67.9778347 magnetization      -0.1209760

 Broyden mixing:
  rms(total) = 0.39232E+01    rms(broyden)= 0.39229E+01
  rms(prec ) = 0.40976E+01
  weight for this iteration     100.00

 eigenvalues of (default mixing * dielectric matrix)
  average eigenvalue GAMMA=   0.3158
  1.2662  0.6305  0.6305  0.3053  0.3053  0.2800  0.1381  0.1381  0.1324  0.0905
  0.0592  0.0759  0.0537

 Free energy of the ion-electron system (eV)
  ---------------------------------------------------
  alpha Z        PSCENC =       775.65410562
  Ewald energy   TEWEN  =     72365.38102372
  -1/2 Hartree   DENC   =    -92926.07204628
  -exchange  EXHF       =         0.00000000
  -V(xc)+E(xc)   XCENC  =       758.11340586
  PAW double counting   =     27373.18880341   -27216.78492079
  entropy T*S    EENTRO =         0.00000000
  eigenvalues    EBANDS =     -2399.61435875
  atomic energy  EATOM  =     20872.91649420
  ---------------------------------------------------
  free energy    TOTEN  =      -397.21749301 eV

  energy without entropy =     -397.21749301  energy(sigma->0) =     -397.21749301


--------------------------------------------------------------------------------------------------------




----------------------------------------- Iteration    1(  19)  ---------------------------------------


    POTLOK:  cpu time    0.08: real time    0.08
    SETDIJ:  cpu time    0.01: real time    0.01
     EDDAV:  cpu time   25.08: real time   25.10
 BZINTS: Fermi energy: -0.633959;310.005640 electrons
         Band energy:***********;  BLOECHL correction: -0.048082
       DOS:  cpu time    0.04: real time    0.04
    CHARGE:  cpu time    0.43: real time    0.43
    MIXING:  cpu time    0.00: real time    0.01
    --------------------------------------------
      LOOP:  cpu time   25.64: real time   25.86

 eigenvalue-minimisations  : 13744
 total energy-change (2. order) : 0.1368551E-01  (-0.7846823E+00)
 number of electron     310.0056711 magnetization      -0.0745644
 augmentation part       67.8847121 magnetization       0.0221108

 Broyden mixing:
  rms(total) = 0.39741E+01    rms(broyden)= 0.39739E+01
  rms(prec ) = 0.40897E+01
  weight for this iteration     100.00

 eigenvalues of (default mixing * dielectric matrix)
  average eigenvalue GAMMA=   0.2975
  1.2656  0.6301  0.6301  0.2816  0.2816  0.2752  0.1500  0.1500  0.1376  0.0918
  0.0592  0.0818  0.0818  0.0481

 Free energy of the ion-electron system (eV)
  ---------------------------------------------------
  alpha Z        PSCENC =       775.65410562
  Ewald energy   TEWEN  =     72365.38102372
  -1/2 Hartree   DENC   =    -92921.27608780
  -exchange  EXHF       =         0.00000000
  -V(xc)+E(xc)   XCENC  =       758.39557748
  PAW double counting   =     27290.30338846   -27133.13899595
  entropy T*S    EENTRO =         0.00000000
  eigenvalues    EBANDS =     -2405.43931324
  atomic energy  EATOM  =     20872.91649420
  ---------------------------------------------------
  free energy    TOTEN  =      -397.20380749 eV

  energy without entropy =     -397.20380749  energy(sigma->0) =     -397.20380749


--------------------------------------------------------------------------------------------------------




----------------------------------------- Iteration    1(  20)  ---------------------------------------


    POTLOK:  cpu time    0.08: real time    0.08
    SETDIJ:  cpu time    0.01: real time    0.01
     EDDAV:  cpu time   23.47: real time   23.49
 BZINTS: Fermi energy: -0.640197;310.000000 electrons
         Band energy:***********;  BLOECHL correction: -0.060238
       DOS:  cpu time    0.03: real time    0.03
    CHARGE:  cpu time    0.43: real time    0.43
    MIXING:  cpu time    0.01: real time    0.01
    --------------------------------------------
      LOOP:  cpu time   24.02: real time   24.12

 eigenvalue-minimisations  : 12688
 total energy-change (2. order) : 0.3105915E+00  (-0.1729619E+00)
 number of electron     310.0000303 magnetization      -0.0746232
 augmentation part       67.8893308 magnetization      -0.0304668

 Broyden mixing:
  rms(total) = 0.37123E+01    rms(broyden)= 0.37122E+01
  rms(prec ) = 0.37671E+01
  weight for this iteration     100.00

 eigenvalues of (default mixing * dielectric matrix)
  average eigenvalue GAMMA=   0.2797
  1.2637  0.6308  0.6308  0.2879  0.2879  0.2753  0.1527  0.1527  0.1365  0.0923
  0.0592  0.0800  0.0800  0.0481  0.0181

 Free energy of the ion-electron system (eV)
  ---------------------------------------------------
  alpha Z        PSCENC =       775.65410562
  Ewald energy   TEWEN  =     72365.38102372
  -1/2 Hartree   DENC   =    -92921.11102425
  -exchange  EXHF       =         0.00000000
  -V(xc)+E(xc)   XCENC  =       758.61443844
  PAW double counting   =     27254.32793828   -27096.75604533
  entropy T*S    EENTRO =         0.00000000
  eigenvalues    EBANDS =     -2405.92014664
  atomic energy  EATOM  =     20872.91649420
  ---------------------------------------------------
  free energy    TOTEN  =      -396.89321596 eV

  energy without entropy =     -396.89321596  energy(sigma->0) =     -396.89321596


--------------------------------------------------------------------------------------------------------




----------------------------------------- Iteration    1(  21)  ---------------------------------------


    POTLOK:  cpu time    0.07: real time    0.08
    SETDIJ:  cpu time    0.01: real time    0.01
     EDDAV:  cpu time   22.43: real time   22.44
 BZINTS: Fermi energy: -0.646519;310.000000 electrons
         Band energy:***********;  BLOECHL correction: -0.066269
       DOS:  cpu time    0.03: real time    0.03
    CHARGE:  cpu time    0.43: real time    0.43
    MIXING:  cpu time    0.01: real time    0.01
    --------------------------------------------
      LOOP:  cpu time   22.97: real time   23.09

 eigenvalue-minimisations  : 12000
 total energy-change (2. order) : 0.8870692E-01  (-0.7080771E-01)
 number of electron     310.0000310 magnetization      -0.0693207
 augmentation part       67.9043622 magnetization       0.0651856

 Broyden mixing:
  rms(total) = 0.36978E+01    rms(broyden)= 0.36977E+01
  rms(prec ) = 0.37507E+01
  weight for this iteration     100.00

 eigenvalues of (default mixing * dielectric matrix)
  average eigenvalue GAMMA=   0.2797
  1.2809  0.6278  0.6278  0.3044  0.3044  0.2725  0.1244  0.1840  0.1840  0.1412
  0.1051  0.0592  0.0872  0.0872  0.0506  0.0343

 Free energy of the ion-electron system (eV)
  ---------------------------------------------------
  alpha Z        PSCENC =       775.65410562
  Ewald energy   TEWEN  =     72365.38102372
  -1/2 Hartree   DENC   =    -92921.12226509
  -exchange  EXHF       =         0.00000000
  -V(xc)+E(xc)   XCENC  =       758.61837083
  PAW double counting   =     27251.85584238   -27094.12414564
  entropy T*S    EENTRO =         0.00000000
  eigenvalues    EBANDS =     -2405.98393507
  atomic energy  EATOM  =     20872.91649420
  ---------------------------------------------------
  free energy    TOTEN  =      -396.80450904 eV

  energy without entropy =     -396.80450904  energy(sigma->0) =     -396.80450904


--------------------------------------------------------------------------------------------------------




----------------------------------------- Iteration    1(  22)  ---------------------------------------


    POTLOK:  cpu time    0.07: real time    0.08
    SETDIJ:  cpu time    0.01: real time    0.01
     EDDAV:  cpu time   26.26: real time   26.27
 BZINTS: Fermi energy: -0.664755;310.031660 electrons
         Band energy:***********;  BLOECHL correction: -0.043581
       DOS:  cpu time    0.04: real time    0.04
    CHARGE:  cpu time    0.43: real time    0.43
    MIXING:  cpu time    0.01: real time    0.01
    --------------------------------------------
      LOOP:  cpu time   26.81: real time   26.91

 eigenvalue-minimisations  : 14488
 total energy-change (2. order) :-0.2368730E+00  (-0.1000353E+00)
 number of electron     310.0316916 magnetization      -0.0662812
 augmentation part       67.9369420 magnetization      -0.0932104

 Broyden mixing:
  rms(total) = 0.38875E+01    rms(broyden)= 0.38874E+01
  rms(prec ) = 0.40191E+01
  weight for this iteration     100.00

 eigenvalues of (default mixing * dielectric matrix)
  average eigenvalue GAMMA=   0.2636
  1.2811  0.6275  0.6275  0.3066  0.3066  0.2730  0.1821  0.1821  0.1128  0.1408
  0.1058  0.0592  0.0867  0.0867  0.0507  0.0344  0.0181

 Free energy of the ion-electron system (eV)
  ---------------------------------------------------
  alpha Z        PSCENC =       775.65410562
  Ewald energy   TEWEN  =     72365.38102372
  -1/2 Hartree   DENC   =    -92917.13796934
  -exchange  EXHF       =         0.00000000
  -V(xc)+E(xc)   XCENC  =       758.59079400
  PAW double counting   =     27259.17825498   -27101.43001985
  entropy T*S    EENTRO =         0.00000000
  eigenvalues    EBANDS =     -2410.19406539
  atomic energy  EATOM  =     20872.91649420
  ---------------------------------------------------
  free energy    TOTEN  =      -397.04138206 eV

  energy without entropy =     -397.04138206  energy(sigma->0) =     -397.04138206


--------------------------------------------------------------------------------------------------------




----------------------------------------- Iteration    1(  23)  ---------------------------------------


    POTLOK:  cpu time    0.08: real time    0.08
    SETDIJ:  cpu time    0.01: real time    0.01
     EDDAV:  cpu time   24.40: real time   24.41
 BZINTS: Fermi energy: -0.662078;310.000000 electrons
         Band energy:***********;  BLOECHL correction: -0.061268
       DOS:  cpu time    0.03: real time    0.03
    CHARGE:  cpu time    0.43: real time    0.43
    MIXING:  cpu time    0.01: real time    0.01
    --------------------------------------------
      LOOP:  cpu time   24.95: real time   25.19

 eigenvalue-minimisations  : 13272
 total energy-change (2. order) : 0.2418090E+00  (-0.3735990E-01)
 number of electron     310.0000314 magnetization      -0.0663640
 augmentation part       67.9379756 magnetization      -0.0495458

 Broyden mixing:
  rms(total) = 0.37345E+01    rms(broyden)= 0.37345E+01
  rms(prec ) = 0.38187E+01
  weight for this iteration     100.00

 eigenvalues of (default mixing * dielectric matrix)
  average eigenvalue GAMMA=   0.2498
  1.2810  0.6275  0.6275  0.3059  0.3059  0.2731  0.1820  0.1820  0.1162  0.1407
  0.1055  0.0592  0.0867  0.0867  0.0507  0.0343  0.0153  0.0153

 Free energy of the ion-electron system (eV)
  ---------------------------------------------------
  alpha Z        PSCENC =       775.65410562
  Ewald energy   TEWEN  =     72365.38102372
  -1/2 Hartree   DENC   =    -92918.01231119
  -exchange  EXHF       =         0.00000000
  -V(xc)+E(xc)   XCENC  =       758.67280001
  PAW double counting   =     27256.40872149   -27098.71197094
  entropy T*S    EENTRO =         0.00000000
  eigenvalues    EBANDS =     -2409.10843598
  atomic energy  EATOM  =     20872.91649420
  ---------------------------------------------------
  free energy    TOTEN  =      -396.79957308 eV

  energy without entropy =     -396.79957308  energy(sigma->0) =     -396.79957308


--------------------------------------------------------------------------------------------------------




----------------------------------------- Iteration    1(  24)  ---------------------------------------


    POTLOK:  cpu time    0.08: real time    0.08
    SETDIJ:  cpu time    0.01: real time    0.01
     EDDAV:  cpu time   23.16: real time   23.18
 BZINTS: Fermi energy: -0.664376;310.000000 electrons
         Band energy:***********;  BLOECHL correction: -0.061297
       DOS:  cpu time    0.03: real time    0.03
    CHARGE:  cpu time    0.43: real time    0.43
    MIXING:  cpu time    0.01: real time    0.01
    --------------------------------------------
      LOOP:  cpu time   23.71: real time   23.81

 eigenvalue-minimisations  : 12472
 total energy-change (2. order) : 0.1502127E-01  (-0.2262000E-02)
 number of electron     310.0000313 magnetization      -0.0670371
 augmentation part       67.9429408 magnetization      -0.0977640

 Broyden mixing:
  rms(total) = 0.37463E+01    rms(broyden)= 0.37463E+01
  rms(prec ) = 0.38336E+01
  weight for this iteration     100.00

 eigenvalues of (default mixing * dielectric matrix)
  average eigenvalue GAMMA=   0.2369
  1.2809  0.6276  0.6276  0.3059  0.3059  0.2731  0.1819  0.1819  0.1142  0.1407
  0.1056  0.0867  0.0867  0.0592  0.0507  0.0343  0.0139  0.0118  0.0118

 Free energy of the ion-electron system (eV)
  ---------------------------------------------------
  alpha Z        PSCENC =       775.65410562
  Ewald energy   TEWEN  =     72365.38102372
  -1/2 Hartree   DENC   =    -92918.00780063
  -exchange  EXHF       =         0.00000000
  -V(xc)+E(xc)   XCENC  =       758.60846949
  PAW double counting   =     27256.48331605   -27098.75422511
  entropy T*S    EENTRO =         0.00000000
  eigenvalues    EBANDS =     -2409.06593514
  atomic energy  EATOM  =     20872.91649420
  ---------------------------------------------------
  free energy    TOTEN  =      -396.78455180 eV

  energy without entropy =     -396.78455180  energy(sigma->0) =     -396.78455180


--------------------------------------------------------------------------------------------------------




----------------------------------------- Iteration    1(  25)  ---------------------------------------


    POTLOK:  cpu time    0.07: real time    0.08
    SETDIJ:  cpu time    0.01: real time    0.01
     EDDAV:  cpu time   25.66: real time   25.67
 BZINTS: Fermi energy: -0.666030;310.000000 electrons
         Band energy:***********;  BLOECHL correction: -0.059480
       DOS:  cpu time    0.03: real time    0.03
    CHARGE:  cpu time    0.43: real time    0.43
    MIXING:  cpu time    0.01: real time    0.01
    --------------------------------------------
      LOOP:  cpu time   26.21: real time   26.31

 eigenvalue-minimisations  : 14072
 total energy-change (2. order) : 0.7711660E-02  (-0.1082119E-01)
 number of electron     310.0000309 magnetization      -0.0668996
 augmentation part       67.9417095 magnetization      -0.1637805

 Broyden mixing:
  rms(total) = 0.37671E+01    rms(broyden)= 0.37671E+01
  rms(prec ) = 0.38384E+01
  weight for this iteration     100.00

 eigenvalues of (default mixing * dielectric matrix)
  average eigenvalue GAMMA=   0.2427
  1.2877  0.6251  0.6251  0.2969  0.2969  0.2098  0.2759  0.1759  0.1759  0.1220
  0.1220  0.1402  0.1102  0.0889  0.0815  0.0592  0.0510  0.0343  0.0382  0.0382

 Free energy of the ion-electron system (eV)
  ---------------------------------------------------
  alpha Z        PSCENC =       775.65410562
  Ewald energy   TEWEN  =     72365.38102372
  -1/2 Hartree   DENC   =    -92917.42822736
  -exchange  EXHF       =         0.00000000
  -V(xc)+E(xc)   XCENC  =       758.60408398
  PAW double counting   =     27258.12010204   -27100.39897156
  entropy T*S    EENTRO =         0.00000000
  eigenvalues    EBANDS =     -2409.62545079
  atomic energy  EATOM  =     20872.91649420
  ---------------------------------------------------
  free energy    TOTEN  =      -396.77684014 eV

  energy without entropy =     -396.77684014  energy(sigma->0) =     -396.77684014


--------------------------------------------------------------------------------------------------------




----------------------------------------- Iteration    1(  26)  ---------------------------------------


    POTLOK:  cpu time    0.07: real time    0.08
    SETDIJ:  cpu time    0.01: real time    0.01
     EDDAV:  cpu time   26.24: real time   26.26
 BZINTS: Fermi energy: -0.653704;310.000000 electrons
         Band energy:***********;  BLOECHL correction: -0.060535
       DOS:  cpu time    0.03: real time    0.03
    CHARGE:  cpu time    0.43: real time    0.43
    MIXING:  cpu time    0.01: real time    0.01
    --------------------------------------------
      LOOP:  cpu time   26.79: real time   26.90

 eigenvalue-minimisations  : 14472
 total energy-change (2. order) :-0.9324481E-01  (-0.9904097E-01)
 number of electron     310.0000317 magnetization      -0.0717462
 augmentation part       67.9404127 magnetization      -0.1486559

 Broyden mixing:
  rms(total) = 0.37713E+01    rms(broyden)= 0.37712E+01
  rms(prec ) = 0.39018E+01
  weight for this iteration     100.00

 eigenvalues of (default mixing * dielectric matrix)
  average eigenvalue GAMMA=   0.2427
  1.2781  0.6291  0.6291  0.3359  0.3359  0.2766  0.2139  0.2139  0.1852  0.1852
  0.1400  0.1093  0.0808  0.0808  0.0882  0.0831  0.0592  0.0509  0.0438  0.0438
  0.0342

 Free energy of the ion-electron system (eV)
  ---------------------------------------------------
  alpha Z        PSCENC =       775.65410562
  Ewald energy   TEWEN  =     72365.38102372
  -1/2 Hartree   DENC   =    -92918.37083681
  -exchange  EXHF       =         0.00000000
  -V(xc)+E(xc)   XCENC  =       758.59383929
  PAW double counting   =     27262.35512466   -27104.66032834
  entropy T*S    EENTRO =         0.00000000
  eigenvalues    EBANDS =     -2408.73950731
  atomic energy  EATOM  =     20872.91649420
  ---------------------------------------------------
  free energy    TOTEN  =      -396.87008496 eV

  energy without entropy =     -396.87008496  energy(sigma->0) =     -396.87008496


--------------------------------------------------------------------------------------------------------




----------------------------------------- Iteration    1(  27)  ---------------------------------------


    POTLOK:  cpu time    0.08: real time    0.08
    SETDIJ:  cpu time    0.01: real time    0.01
     EDDAV:  cpu time   26.63: real time   26.65
 BZINTS: Fermi energy: -0.639468;310.000000 electrons
         Band energy:***********;  BLOECHL correction: -0.057397
       DOS:  cpu time    0.03: real time    0.03
    CHARGE:  cpu time    0.43: real time    0.43
    MIXING:  cpu time    0.01: real time    0.01
    --------------------------------------------
      LOOP:  cpu time   27.18: real time   27.29

 eigenvalue-minimisations  : 14736
 total energy-change (2. order) :-0.9240394E-01  (-0.1695475E-01)
 number of electron     310.0000316 magnetization      -0.0689578
[...]
    143      -2.6527      1.00000
    144      -2.6114      1.00000
    145      -2.5680      1.00000
    146      -2.5343      1.00000
    147      -2.4491      1.00000
    148      -2.2990      1.00000
    149      -2.2910      1.00000
    150      -2.1718      1.00000
    151      -2.0439      1.00000
    152      -1.9783      1.00000
    153      -1.9166      1.00000
    154      -1.7902      1.00000
    155      -1.6680      1.00000
    156      -1.5532      1.00000
    157      -1.4450      1.00000
    158      -1.4147      1.00000
    159      -1.3949      1.00000
    160      -1.3655      1.00000
    161      -1.3530      0.88279
    162      -1.1713      0.00000
    163      -1.0882      0.00000
    164      -0.9372      0.00000
    165      -0.8022      0.00000
    166      -0.7503      0.00000
    167      -0.6284      0.00000
    168      -0.6131      0.00000
    169      -0.5865      0.00000
    170      -0.4518      0.00000
    171      -0.4318      0.00000
    172      -0.2855      0.00000
    173      -0.2138      0.00000
    174      -0.1638      0.00000
    175      -0.0159      0.00000
    176       0.0220      0.00000
    177       0.0640      0.00000
    178       0.0831      0.00000
    179       0.2987      0.00000
    180       0.4223      0.00000
    181       0.4937      0.00000
    182       0.6326      0.00000
    183       1.1374      0.00000
    184       1.1776      0.00000
    185       1.2361      0.00000
    186       1.3137      0.00000
    187       1.6812      0.00000
    188       1.7397      0.00000
    189       1.8005      0.00000
    190       2.6217      0.00000
    191       2.7786      0.00000
    192       3.3273      0.00000


--------------------------------------------------------------------------------------------------------


 soft charge-density along one line, spin component           1
         0         1         2         3         4         5         6         7         8         9
 total charge-density along one line
 
 soft charge-density along one line, spin component           2
         0         1         2         3         4         5         6         7         8         9
 total charge-density along one line
 
 pseudopotential strength for first ion, spin component:           1
 13.127 -16.052   0.000  -0.072   0.002  -0.000   0.090  -0.003
-16.052  19.654  -0.000   0.091  -0.003   0.000  -0.115   0.004
  0.000  -0.000  -9.659  -0.000  -0.000  11.845   0.000   0.000
 -0.072   0.091  -0.000  -9.700   0.007   0.000  11.897  -0.010
  0.002  -0.003  -0.000   0.007  -9.652   0.000  -0.010  11.836
 -0.000   0.000  11.845   0.000   0.000 -14.425  -0.000  -0.000
  0.090  -0.115   0.000  11.897  -0.010  -0.000 -14.492   0.014
 -0.003   0.004   0.000  -0.010  11.836  -0.000   0.014 -14.414
 pseudopotential strength for first ion, spin component:           2
 13.045 -15.946   0.000  -0.075   0.002  -0.000   0.095  -0.003
-15.946  19.517  -0.000   0.096  -0.003   0.000  -0.121   0.003
  0.000  -0.000  -9.573  -0.000  -0.000  11.724   0.000   0.000
 -0.075   0.096  -0.000  -9.651   0.003   0.000  11.829  -0.003
  0.002  -0.003  -0.000   0.003  -9.562   0.000  -0.003  11.708
 -0.000   0.000  11.724   0.000   0.000 -14.253  -0.000  -0.000
  0.095  -0.121   0.000  11.829  -0.003  -0.000 -14.395   0.004
 -0.003   0.003   0.000  -0.003  11.708  -0.000   0.004 -14.231
 total augmentation occupancy for first ion, spin component:           1
  2.410   0.241   0.000   0.223  -0.010   0.000   0.076  -0.004
  0.241   0.080   0.000   0.207  -0.009   0.000   0.029  -0.001
  0.000   0.000   1.509   0.000   0.000   0.114   0.000   0.000
  0.223   0.207   0.000   1.926   0.002   0.000   0.183  -0.002
 -0.010  -0.009   0.000   0.002   1.512   0.000  -0.003   0.115
  0.000   0.000   0.114   0.000   0.000   0.011   0.000   0.000
  0.076   0.029   0.000   0.183  -0.003   0.000   0.022  -0.000
 -0.004  -0.001   0.000  -0.002   0.115   0.000  -0.000   0.011
 total augmentation occupancy for first ion, spin component:           2
 -0.114  -0.080   0.000  -0.005  -0.002   0.000  -0.005  -0.000
 -0.080  -0.045   0.000  -0.000  -0.002   0.000  -0.004   0.000
  0.000   0.000  -0.061   0.000   0.000  -0.000   0.000   0.000
 -0.005  -0.000   0.000  -0.022  -0.002   0.000   0.001   0.001
 -0.002  -0.002   0.000  -0.002  -0.068   0.000   0.001  -0.002
  0.000   0.000  -0.000   0.000   0.000  -0.000   0.000   0.000
 -0.005  -0.004   0.000   0.001   0.001   0.000  -0.001   0.000
 -0.000   0.000   0.000   0.001  -0.002   0.000   0.000  -0.000


------------------------ aborting loop because EDIFF is reached ----------------------------------------


    CHARGE:  cpu time    0.42: real time    0.42
    FORLOC:  cpu time    0.01: real time    0.01
    FORNL :  cpu time    9.33: real time    9.33
    STRESS:  cpu time   11.82: real time   11.82
    FORCOR:  cpu time    0.08: real time    0.08
    FORHAR:  cpu time    0.01: real time    0.01
    MIXING:  cpu time    0.02: real time    0.02

  FORCE on cell =-STRESS in cart. coord.  units (eV):
  Direction    XX          YY          ZZ          XY          YZ          ZX
  --------------------------------------------------------------------------------------
  Alpha Z   775.65411   775.65411   775.65411
  Ewald   78953.16355 85654.27915-92242.13251    -0.00000    -0.00000    91.81964
  Hartree 92760.09692 97913.99547-90069.59676    -0.00000    -0.00000  -281.93703
  E(xc)   -1538.44387 -1540.34454 -1538.79905    -0.00000    -0.00000    -0.05740
  Local  ************************177813.78469    -0.00000    -0.00000   254.42332
  n-local  -507.94486  -484.43399  -506.42357    -1.18618    -1.02568    -5.40637
  augment   730.86616   712.80217   695.99652    -0.00000    -0.00000    -3.45717
  Kinetic  5399.08921  5283.63331  5400.90161    -0.21891    -0.12283    -5.89783
  Fock        0.00000     0.00000     0.00000     0.00000     0.00000     0.00000
  -------------------------------------------------------------------------------------
  Total     944.85151  1183.36648   329.38502     0.00000     0.00000    49.48715
  in kB    1869.44535  2341.36151   651.70801     0.00000     0.00000    97.91329
  external pressure =     1620.84 kB  Pullay stress =        0.00 kB


 VOLUME and BASIS-vectors are now :
 -----------------------------------------------------------------------------
  energy-cutoff  :      520.00
  volume of cell :      809.77
      direct lattice vectors                 reciprocal lattice vectors
     9.694590000  0.000000000  0.000000000     0.103150314  0.000000000  0.000000000
     0.000000000  2.841300000  0.000000000     0.000000000  0.351951571  0.000000000
     0.000000000  0.000000000 29.397800000     0.000000000  0.000000000  0.034016151

  length of vectors
     9.694590000  2.841300000 29.397800000     0.103150314  0.351951571  0.034016151


 FORCES acting on ions
    electron-ion (+dipol)            ewald-force                    non-local-force                 convergence-correction
 -----------------------------------------------------------------------------------------------
   0.488E+02 -.720E-12 0.193E+04   -.685E+02 0.833E-14 -.199E+04   -.125E+01 0.162E-18 0.308E+02   0.208E+02 0.185E-11 0.302E+02
   0.264E+03 0.549E-16 0.156E+03   -.224E+03 0.133E-13 -.632E+02   0.154E+02 -.119E-17 -.179E+02   -.552E+02 0.286E-11 -.741E+02
   0.842E+02 0.183E-17 -.188E+04   -.194E+03 0.133E-13 0.184E+04   0.164E+02 -.185E-18 -.170E+02   0.940E+02 0.300E-13 0.534E+02
   0.234E+03 0.154E-11 0.126E+04   -.237E+03 0.598E-14 -.106E+04   0.166E+02 0.457E-18 -.121E+02   -.151E+02 0.183E-11 -.181E+03
   0.239E+03 0.156E-11 -.907E+03   -.225E+03 0.705E-14 0.906E+03   0.161E+02 0.409E-18 -.184E+02   -.293E+02 0.226E-11 0.202E+02
   -.122E+03 -.100E-13 0.188E+04   0.201E+03 -.112E-14 -.181E+04   -.142E+02 -.390E-18 0.197E+02   -.626E+02 0.104E-11 -.927E+02
   -.197E+03 -.450E-13 -.156E+03   0.221E+03 0.112E-13 0.141E+03   -.153E+02 0.441E-20 0.189E+02   -.831E+01 -.202E-11 -.425E+01
   -.207E+03 -.199E-13 0.964E+03   0.228E+03 -.578E-14 -.829E+03   -.161E+02 0.447E-18 0.203E+02   -.520E+01 -.243E-11 -.155E+03
   -.215E+03 0.180E-12 -.127E+04   0.251E+03 0.161E-13 0.112E+04   -.140E+02 0.920E-19 0.166E+02   -.219E+02 -.126E-11 0.132E+03
   -.275E+03 -.550E-13 0.596E+02   0.293E+03 0.897E-14 -.360E+02   -.186E+02 -.147E-20 -.152E+02   0.147E+01 -.217E-11 -.866E+01
   -.124E+03 -.200E-13 -.209E+04   0.200E+03 0.153E-14 0.192E+04   -.211E+02 0.160E-17 -.908E+01   -.557E+02 0.134E-11 0.174E+03
   -.310E+03 0.798E-12 0.119E+04   0.314E+03 -.823E-15 -.104E+04   -.217E+02 -.957E-18 -.916E+01   0.194E+02 -.934E-12 -.148E+03
   -.287E+03 0.760E-12 -.100E+04   0.298E+03 -.391E-14 0.936E+03   -.209E+02 0.178E-18 -.139E+02   0.861E+01 -.385E-12 0.822E+02
   0.201E+03 -.400E-13 0.185E+04   -.278E+03 0.689E-14 -.179E+04   0.177E+02 -.171E-17 0.152E+02   0.586E+02 0.341E-12 -.797E+02
   0.283E+03 -.749E-14 -.160E+03   -.293E+03 0.157E-13 0.108E+03   0.181E+02 0.878E-18 0.159E+02   -.998E+01 0.501E-12 0.354E+02
   0.317E+03 0.605E-12 0.946E+03   -.300E+03 0.503E-14 -.859E+03   0.204E+02 -.663E-18 0.154E+02   -.378E+02 0.663E-12 -.103E+03
   0.439E+03 -.370E-12 -.124E+04   -.312E+03 -.379E-14 0.111E+04   0.147E+02 -.179E-17 0.179E+02   -.145E+03 0.514E-12 0.113E+03
   -.137E+03 0.501E-13 0.102E+04   0.136E+03 -.461E-14 -.895E+03   -.250E+01 0.712E-18 0.443E+01   0.456E+01 -.719E-13 -.129E+03
   -.184E+03 0.400E-13 -.117E+04   0.133E+03 0.126E-16 0.104E+04   -.563E+00 0.840E-18 -.151E+01   0.517E+02 -.226E-11 0.126E+03
   -.955E+02 0.520E-12 0.195E+04   0.120E+03 0.143E-13 -.199E+04   0.246E-02 -.211E-18 0.171E+02   -.234E+02 -.252E-11 0.198E+02
   -.133E+03 -.860E-12 -.887E+02   0.126E+03 0.637E-14 0.692E+02   -.135E+01 0.300E-18 0.321E+01   0.851E+01 -.146E-11 0.155E+02
   0.142E+03 -.399E-13 0.116E+04   -.137E+03 0.246E-13 -.982E+03   0.202E+01 -.493E-18 -.352E+00   -.746E+01 0.202E-11 -.177E+03
   0.130E+03 -.401E-13 -.942E+03   -.134E+03 -.274E-15 0.972E+03   0.238E+01 -.563E-18 -.104E+02   0.233E+01 0.204E-11 -.229E+02
   0.126E+03 -.140E-12 -.317E+02   -.124E+03 0.252E-13 -.144E+01   0.201E+01 0.417E-18 -.567E+01   -.402E+01 0.295E-11 0.368E+02
   0.438E+02 -.225E-12 -.195E+04   -.563E+02 -.229E-14 0.198E+04   0.178E+01 -.698E-18 -.227E+02   0.108E+02 0.230E-11 -.881E+01
   -.840E+01 -.249E-14 0.463E+03   -.473E+02 0.468E-14 -.420E+03   0.358E+01 0.161E-19 0.379E+01   0.517E+02 -.462E-11 -.472E+02
   0.781E+02 0.138E-13 -.167E+04   -.820E+01 0.677E-15 0.158E+04   0.375E+01 -.496E-18 0.403E+01   -.736E+02 0.112E-12 0.869E+02
   0.336E+02 0.145E-12 0.150E+04   -.416E+02 0.163E-13 -.138E+04   0.462E+01 -.854E-18 0.371E+01   0.493E+01 -.721E-12 -.119E+03
   0.871E+01 0.193E-12 -.591E+03   -.462E+02 0.200E-13 0.546E+03   0.449E+01 -.584E-18 0.301E+01   0.324E+02 -.106E-11 0.418E+02
   -.916E+02 -.300E-13 0.151E+04   0.808E+02 -.613E-15 -.140E+04   -.662E+01 0.317E-17 -.817E+01   0.163E+02 0.187E-11 -.102E+03
   -.602E+02 -.100E-13 -.537E+03   0.465E+02 0.148E-13 0.496E+03   -.304E+01 -.430E-18 -.413E+01   0.180E+02 0.392E-11 0.452E+02
   -.756E+02 -.212E-11 0.578E+03   0.355E+02 0.157E-13 -.488E+03   -.384E+01 0.118E-17 -.110E+01   0.437E+02 0.163E-11 -.887E+02
   -.186E+03 0.189E-11 -.155E+04   0.294E+02 -.257E-14 0.146E+04   -.122E+00 0.603E-17 -.390E+01   0.159E+03 0.453E-11 0.996E+02
   0.552E+01 0.206E-13 0.429E+03   -.297E+01 0.159E-13 -.362E+03   -.354E+00 -.157E-17 -.627E+00   -.160E+01 0.413E-12 -.664E+02
   -.494E+02 -.133E-13 -.199E+04   0.497E+02 -.220E-14 0.192E+04   -.319E+00 -.608E-18 0.121E+01   -.428E-01 0.151E-11 0.723E+02
   0.505E+02 0.885E-12 0.167E+04   -.202E+02 -.980E-14 -.151E+04   0.202E+00 -.796E-18 0.957E-01   -.311E+02 -.101E-11 -.161E+03
   0.178E+02 -.391E-12 -.780E+03   -.142E+02 0.568E-14 0.772E+03   -.622E+00 -.339E-19 -.551E+00   -.229E+01 0.575E-13 0.101E+02
   0.152E+02 -.216E-13 0.198E+04   0.103E+02 -.158E-13 -.188E+04   -.933E+00 -.508E-18 -.219E+01   -.267E+02 -.663E-12 -.989E+02
   -.501E+01 0.166E-13 -.471E+03   0.897E+01 -.239E-14 0.447E+03   0.714E+00 0.120E-18 0.783E+00   -.529E+01 -.136E-11 0.243E+02
   -.108E+00 0.724E-13 0.804E+03   0.149E+02 -.483E-14 -.673E+03   0.395E-02 0.590E-18 0.930E+00   -.147E+02 -.234E-11 -.131E+03
   -.115E+03 0.919E-13 -.168E+04   0.238E+02 0.610E-14 0.157E+04   0.162E+00 -.307E-19 -.114E+01   0.890E+02 0.784E-12 0.116E+03
   0.423E+02 0.266E-14 0.849E+03   -.436E+02 -.114E-13 -.739E+03   0.474E+00 -.447E-18 0.160E+01   0.157E+01 -.215E-11 -.111E+03
   0.711E+02 -.178E-13 -.164E+04   -.637E+02 0.299E-14 0.153E+04   0.112E+01 -.321E-17 -.326E+01   -.571E+01 -.266E-11 0.113E+03
   -.101E+02 0.189E-12 0.194E+04   -.233E+02 0.244E-13 -.186E+04   -.113E+00 0.372E-18 -.418E+01   0.340E+02 -.247E-11 -.855E+02
   0.293E+02 -.225E-12 -.440E+03   -.328E+02 -.122E-13 0.385E+03   -.413E-01 -.731E-18 -.198E+00   0.408E+01 -.725E-12 0.551E+02
   -.627E+02 0.284E-13 0.158E+04   0.410E+02 -.357E-14 -.144E+04   -.156E+00 0.494E-18 -.294E+00   0.219E+02 0.277E-11 -.147E+03
   -.601E+02 0.155E-13 -.909E+03   0.378E+02 -.379E-14 0.829E+03   0.447E+00 -.733E-18 -.797E+00   0.219E+02 0.156E-11 0.806E+02
   -.455E+02 -.198E-12 0.339E+03   0.352E+02 -.626E-14 -.302E+03   0.132E+00 0.118E-18 -.553E+00   0.966E+01 0.168E-11 -.367E+02
   0.974E+02 0.500E-13 -.225E+04   -.827E+01 0.197E-13 0.211E+04   0.200E+00 -.103E-18 0.275E+01   -.875E+02 0.143E-11 0.128E+03
 -----------------------------------------------------------------------------------------------
   -.574E+02 0.405E-11 0.627E+03   -.888E-13 0.233E-12 0.182E-11   -.169E+00 -.140E-17 0.328E+02   0.599E+02 0.950E-11 -.667E+03
 
 
 POSITION                                       TOTAL-FORCE (eV/Angst)
 -----------------------------------------------------------------------------------
      3.30681      1.42065      4.69425        -0.211118     -0.000000      0.894142
      1.51130      0.00000     12.69984        -0.176733     -0.000000      0.816963
      1.51111      0.00000     22.40485         0.339566      0.000000      1.654144
      6.38415      1.42065      7.84716        -1.406480     -0.000000      3.989855
      6.35840      1.42065     17.55540         0.039527      0.000000      0.329589
      8.18729      0.00000      6.94648         2.055286      0.000000     -0.651882
      8.18348      0.00000     16.69185         0.474259     -0.000000     -0.035709
      3.33724      1.42065     11.82139        -0.186082     -0.000000      0.194391
      3.33619      1.42065     21.54130         0.727862      0.000000     -0.808424
      7.73617      0.00000     13.17155         0.563133      0.000000     -0.165853
      7.72084      0.00000     22.88670        -0.706555     -0.000000      2.548331
      2.83608      1.42065      8.32661         0.651059      0.000000      0.824259
      2.87354      1.42065     18.03725        -0.602399      0.000000      1.844526
      2.00387      0.00000      6.48980        -0.634036      0.000000      0.410633
      1.97375      0.00000     16.21000        -1.662630      0.000000     -0.112955
      6.83156      1.42065     11.33063        -0.423267      0.000000      0.256036
      6.82105      1.42065     21.05945        -2.848563      0.000000      1.715706
      1.57406      0.00000     10.22773         0.176143      0.000000      0.626361
      1.56388      0.00000     19.93392         0.031901      0.000000     -1.040638
      6.37869      1.42065      5.40846         0.686650     -0.000000     -3.193670
      6.41117      1.42065     15.08447         0.318124     -0.000000     -0.586569
      8.13110      0.00000      9.43131        -0.429360      0.000000      2.369890
      8.13071      0.00000     19.16278         0.034870      0.000000     -3.136436
      3.28313      1.42065     14.30152        -0.160059     -0.000000     -1.922041
      3.28342      1.42065     24.01223         0.000862     -0.000000     -1.349363
      5.25975      0.00000     13.07476        -0.456300     -0.000000      0.195961
      5.24874      0.00000     22.78600        -0.034035      0.000000      1.186213
      0.39338      1.42065      8.24728         1.579719      0.000000      0.133753
      0.40145      1.42065     17.93655        -0.633745     -0.000000     -0.046381
      4.42808      0.00000      6.67712        -1.235282      0.000000      0.500138
      4.44585      0.00000     16.31070         1.298520     -0.000000      0.082222
      9.30561      1.42065     11.39461        -0.271280      0.000000      0.168184
      9.29314      1.42065     21.16015         2.007213     -0.000000      0.306340
      3.36966      0.00000     13.06877         0.549513      0.000000      0.392338
      3.37164      0.00000     22.78659        -0.174907      0.000000      3.877839
      8.21977      1.42065      8.20144        -0.602826      0.000000     -0.000756
      8.21893      1.42065     17.93714         0.719720      0.000000      1.410234
      6.34064      0.00000      6.52660        -2.157171      0.000000     -2.826963
      6.32295      0.00000     16.31011        -0.657565      0.000000      0.662225
      1.46472      1.42065     11.44797         0.009980      0.000000      0.802583
      1.47566      1.42065     21.15956        -2.469326      0.000000     -0.949248
      8.07822      0.00000     11.28396         0.762631      0.000000      0.365435
      8.07008      0.00000     21.01581         2.794531     -0.000000     -4.132940
      3.25101      1.42065      6.29199         0.474198     -0.000000     -2.018883
      3.22279      1.42065     16.16636         0.483927     -0.000000     -0.288351
      1.64280      0.00000      8.36545         0.079880     -0.000000     -0.787818
      1.62451      0.00000     18.08089        -0.009561      0.000000      0.603254
      6.48068      1.42065     13.20556        -0.526889      0.000000     -0.069302
      6.47180      1.42065     22.93034         1.817099      0.000000     -5.037361
 -----------------------------------------------------------------------------------
    total drift:                                2.304540      0.000000     -7.246088


--------------------------------------------------------------------------------------------------------



  FREE ENERGIE OF THE ION-ELECTRON SYSTEM (eV)
  ---------------------------------------------------
  free  energy   TOTEN  =      -377.46224015 eV

  energy  without entropy=     -377.46224015  energy(sigma->0) =     -377.46224015
 


--------------------------------------------------------------------------------------------------------


    POTLOK:  cpu time    0.09: real time    0.09


--------------------------------------------------------------------------------------------------------


     LOOP+:  cpu time 1543.03: real time 1552.83
    4ORBIT:  cpu time    0.00: real time    0.00
 BZINTS: Fermi energy: -1.298631;310.000000 electrons
         Band energy:***********;  BLOECHL correction: -0.029862

 total amount of memory used by VASP on root node   102446. kBytes
========================================================================

   base      :      30000. kBytes
   nonl-proj :      19990. kBytes
   fftplans  :       2570. kBytes
   grid      :       6474. kBytes
   one-center:        404. kBytes
   wavefun   :      43008. kBytes
 
  
  
 General timing and accounting informations for this job:
 ========================================================
  
                  Total CPU time used (sec):     1554.378
                            User time (sec):     1539.567
                          System time (sec):       14.811
                         Elapsed time (sec):     1570.122
  
                   Maximum memory used (kb):      242772.
                   Average memory used (kb):           0.
  
                          Minor page faults:        21328
                          Major page faults:            0
                 Voluntary context switches:        24947
