 vasp.5.3.3 18Dez12 (build May 12 2016 12:04:25) complex                        
  
 executed on             LinuxIFC date 2019.03.04  19:08:13
 running on   48 total cores
 distrk:  each k-point on   48 cores,    1 groups
 distr:  one band on NCORES_PER_BAND=   6 cores,    8 groups


--------------------------------------------------------------------------------------------------------


 INCAR:
 POTCAR:   PAW_PBE Mn 06Sep2000                   
 POTCAR:   PAW_PBE O_s 07Sep2000                  
 POTCAR:    PAW_PBE Li 17Jan2003                  
 POTCAR:   PAW_PBE Mn 06Sep2000                   
  local pseudopotential read in
  partial core-charges read in
  atomic valenz-charges read in
  non local Contribution for L=           2  read in
    real space projection operators read in
  non local Contribution for L=           2  read in
    real space projection operators read in
  non local Contribution for L=           0  read in
    real space projection operators read in
  non local Contribution for L=           0  read in
    real space projection operators read in
  non local Contribution for L=           1  read in
    real space projection operators read in
  non local Contribution for L=           1  read in
    real space projection operators read in
    PAW grid and wavefunctions read in
 
   number of l-projection  operators is LMAX  =           6
   number of lm-projection operators is LMMAX =          18
 
 POTCAR:   PAW_PBE O_s 07Sep2000                  
  local pseudopotential read in
  atomic valenz-charges read in
  non local Contribution for L=           0  read in
    real space projection operators read in
  non local Contribution for L=           0  read in
    real space projection operators read in
  non local Contribution for L=           1  read in
    real space projection operators read in
  non local Contribution for L=           1  read in
    real space projection operators read in
    PAW grid and wavefunctions read in
 
   number of l-projection  operators is LMAX  =           4
   number of lm-projection operators is LMMAX =           8
 
 POTCAR:    PAW_PBE Li 17Jan2003                  
  local pseudopotential read in
  partial core-charges read in
  atomic valenz-charges read in
  non local Contribution for L=           0  read in
    real space projection operators read in
  non local Contribution for L=           0  read in
    real space projection operators read in
  non local Contribution for L=           1  read in
    real space projection operators read in
    PAW grid and wavefunctions read in
 
   number of l-projection  operators is LMAX  =           3
   number of lm-projection operators is LMMAX =           5
 

 ----------------------------------------------------------------------------- 
|                                                                             |
|  ADVICE TO THIS USER RUNNING 'VASP/VAMP'   (HEAR YOUR MASTER'S VOICE ...):  |
|                                                                             |
|      You have a (more or less) 'large supercell' and for larger cells       |
|      it might be more efficient to use real space projection operators      |
|      So try LREAL= Auto  in the INCAR   file.                               |
|      Mind: If you want to do a very accurate calculations keep the          |
|      reciprocal projection scheme          (i.e. LREAL=.FALSE.)             |
|                                                                             |
 ----------------------------------------------------------------------------- 

 PAW_PBE Mn 06Sep2000                   :
 energy of atom  1       EATOM= -416.8732
 kinetic energy error for atom=    0.0088 (will be added to EATOM!!)
 PAW_PBE O_s 07Sep2000                  :
 energy of atom  2       EATOM= -432.2909
 kinetic energy error for atom=    0.0164 (will be added to EATOM!!)
  PAW_PBE Li 17Jan2003                  :
 energy of atom  3       EATOM=   -5.3001
 kinetic energy error for atom=    0.0000 (will be added to EATOM!!)
 
 
 POSCAR: Li Mn30 O62  (P1) ~ CONTCAR (VASP)      
  positions in direct lattice
  velocities in cartesian coordinates
 exchange correlation table for  LEXCH =        8
   RHO(1)=    0.500       N(1)  =     2000
   RHO(2)=  100.500       N(2)  =     4000
 


--------------------------------------------------------------------------------------------------------


 ion  position               nearest neighbor table
   1  0.077  0.263  0.621-  52 1.89  52 1.89  31 1.92  72 1.93  72 1.93  63 1.94  10 2.93  10 2.93

   2  0.081  0.259  0.528-  51 1.89  51 1.89  32 1.91  71 1.93  71 1.93  64 1.94   9 2.92   9 2.92

   3  0.990  0.759  0.215-  50 1.90  33 1.90  50 1.90  65 1.94  70 1.94  70 1.94   8 2.92   8 2.93

   4  0.030  0.257  0.434-  49 1.92  49 1.92  69 1.94  69 1.94  34 1.97  66 2.32  93 2.71  93 2.71
                            93 3.06  93 3.06
   5  0.972  0.753  0.310-  48 1.90  48 1.90  35 1.91  68 1.94  68 1.94  67 1.97   6 2.94   6 2.94

   6  0.006  0.252  0.336-  47 1.91  47 1.91  67 1.92  67 1.92  68 1.94  36 1.95   5 2.94   5 2.94

   7  0.985  0.757  0.405-  46 1.90  46 1.91  37 1.91  66 1.93  66 1.93  69 2.00  93 2.56  93 3.24

   8  0.002  0.258  0.240-  45 1.91  45 1.91  65 1.93  65 1.93  38 1.95  70 1.95   3 2.92   3 2.93

   9  0.962  0.759  0.503-  44 1.89  44 1.89  39 1.92  71 1.93  64 1.93  64 1.93   2 2.92   2 2.92

  10  0.960  0.763  0.596-  43 1.89  43 1.89  40 1.92  63 1.93  63 1.93  72 1.94   1 2.93   1 2.93

  11  0.472  0.263  0.668-  41 1.89  41 1.89  42 1.92  62 1.93  62 1.93  53 1.94  20 2.94  20 2.94

  12  0.459  0.262  0.575-  40 1.89  40 1.89  43 1.91  61 1.93  61 1.93  54 1.94  19 2.92  19 2.93

  13  0.460  0.258  0.482-  39 1.89  39 1.89  44 1.91  60 1.93  60 1.93  55 1.96  18 2.92  18 2.92

  14  0.504  0.755  0.262-  38 1.90  38 1.90  45 1.92  59 1.94  59 1.94  56 1.97  17 2.95  17 2.95

  15  0.490  0.255  0.383-  37 1.91  37 1.91  58 1.92  58 1.92  57 1.94  46 1.96  16 2.94  16 2.95

  16  0.509  0.753  0.358-  36 1.90  36 1.90  47 1.91  57 1.93  57 1.93  58 1.97  15 2.94  15 2.95

  17  0.474  0.254  0.288-  35 1.91  35 1.91  56 1.92  56 1.92  59 1.94  48 1.95  14 2.95  14 2.95

  18  0.536  0.758  0.456-  34 1.91  34 1.91  60 1.92  55 1.93  55 1.93  49 1.96  13 2.92  13 2.92

  19  0.581  0.761  0.550-  32 1.89  32 1.89  51 1.92  54 1.93  54 1.93  61 1.93  12 2.92  12 2.93

  20  0.577  0.763  0.643-  31 1.89  31 1.89  52 1.92  53 1.93  53 1.93  62 1.94  11 2.94  11 2.94

  21  0.972  0.763  0.690-  78 1.90  78 1.90  42 1.90  42 1.90  41 1.93  88 1.94
  22  0.975  0.762  0.735-  79 1.90  79 1.90  83 1.90  83 1.90  89 1.94  73 1.94
  23  0.976  0.763  0.779-  80 1.90  80 1.90  84 1.90  84 1.90  90 1.94  74 1.94
  24  0.977  0.763  0.823-  81 1.90  81 1.90  85 1.90  85 1.90  91 1.94  75 1.94
  25  0.981  0.764  0.868-  92 1.89  86 1.91  86 1.91  82 1.92  82 1.92  76 1.97
  26  0.473  0.263  0.713-  73 1.90  73 1.90  88 1.90  88 1.90  83 1.93  78 1.94
  27  0.475  0.262  0.757-  74 1.90  74 1.90  89 1.90  89 1.90  84 1.93  79 1.94
  28  0.476  0.263  0.801-  75 1.90  75 1.90  90 1.90  90 1.90  85 1.94  80 1.94
  29  0.473  0.263  0.846-  91 1.90  91 1.90  76 1.90  76 1.90  86 1.94  81 1.95
  30  0.449  0.264  0.890-  87 1.81  77 1.87  77 1.87  92 1.93  92 1.93  82 2.05
  31  0.401  0.263  0.634-  20 1.89  20 1.89   1 1.92
  32  0.413  0.260  0.540-  19 1.89  19 1.89   2 1.91
  33  0.793  0.756  0.198-   3 1.90
  34  0.329  0.258  0.448-  18 1.91  18 1.91   4 1.97
  35  0.694  0.754  0.296-  17 1.91  17 1.91   5 1.91
  36  0.285  0.253  0.350-  16 1.90  16 1.90   6 1.95
  37  0.721  0.755  0.390-  15 1.91  15 1.91   7 1.91
  38  0.279  0.256  0.255-  14 1.90  14 1.90   8 1.95
  39  0.639  0.759  0.491-  13 1.89  13 1.89   9 1.92
  40  0.629  0.762  0.584-  12 1.89  12 1.89  10 1.92
  41  0.652  0.763  0.678-  11 1.89  11 1.89  21 1.93
  42  0.143  0.263  0.681-  21 1.90  21 1.90  11 1.92
  43  0.129  0.263  0.587-  10 1.89  10 1.89  12 1.91
  44  0.137  0.259  0.494-   9 1.89   9 1.89  13 1.91
  45  0.780  0.758  0.248-   8 1.91   8 1.91  14 1.92
  46  0.219  0.256  0.399-   7 1.90   7 1.91  15 1.96
  47  0.786  0.752  0.343-  16 1.91   6 1.91   6 1.91
  48  0.194  0.253  0.303-   5 1.90   5 1.90  17 1.95
  49  0.792  0.758  0.440-   4 1.92   4 1.92  18 1.96  93 1.98
  50  0.178  0.259  0.205-   3 1.90   3 1.90
  51  0.912  0.760  0.538-   2 1.89   2 1.89  19 1.92
  52  0.901  0.763  0.631-   1 1.89   1 1.89  20 1.92
  53  0.748  0.263  0.654-  20 1.93  20 1.93  11 1.94
  54  0.745  0.261  0.560-  19 1.93  19 1.93  12 1.94
  55  0.725  0.258  0.466-  18 1.93  18 1.93  13 1.96
  56  0.274  0.755  0.279-  17 1.92  17 1.92  14 1.97
  57  0.712  0.253  0.367-  16 1.93  16 1.93  15 1.94
  58  0.285  0.754  0.375-  15 1.92  15 1.92  16 1.97
  59  0.704  0.255  0.271-  14 1.94  14 1.94  17 1.94
  60  0.280  0.758  0.472-  18 1.92  13 1.93  13 1.93
  61  0.294  0.761  0.564-  19 1.93  12 1.93  12 1.93
  62  0.301  0.763  0.658-  11 1.93  11 1.93  20 1.94
  63  0.794  0.263  0.607-  10 1.93  10 1.93   1 1.94
  64  0.795  0.259  0.514-   9 1.93   9 1.93   2 1.94
  65  0.208  0.758  0.231-   8 1.93   8 1.93   3 1.94
  66  0.770  0.257  0.414-  93 1.92  93 1.92   7 1.93   7 1.93   4 2.32
  67  0.205  0.752  0.327-   6 1.92   6 1.92   5 1.97
  68  0.774  0.252  0.319-   5 1.94   5 1.94   6 1.94
  69  0.194  0.757  0.423-  93 1.75   4 1.94   4 1.94   7 2.00
  70  0.777  0.259  0.223-   3 1.94   3 1.94   8 1.95
  71  0.246  0.759  0.518-   9 1.93   2 1.93   2 1.93
  72  0.244  0.763  0.611-   1 1.93   1 1.93  10 1.94
  73  0.643  0.763  0.722-  26 1.90  26 1.90  22 1.94
  74  0.646  0.763  0.767-  27 1.90  27 1.90  23 1.94
  75  0.646  0.763  0.811-  28 1.90  28 1.90  24 1.94
  76  0.640  0.763  0.856-  29 1.90  29 1.90  25 1.97
  77  0.586  0.764  0.900-  30 1.87  30 1.87
  78  0.803  0.263  0.700-  21 1.90  21 1.90  26 1.94
  79  0.805  0.262  0.744-  22 1.90  22 1.90  27 1.94
  80  0.808  0.263  0.789-  23 1.90  23 1.90  28 1.94
  81  0.807  0.263  0.833-  24 1.90  24 1.90  29 1.95
  82  0.824  0.264  0.879-  25 1.92  25 1.92  30 2.05
  83  0.143  0.262  0.725-  22 1.90  22 1.90  26 1.93
  84  0.145  0.263  0.769-  23 1.90  23 1.90  27 1.93
  85  0.145  0.263  0.813-  24 1.90  24 1.90  28 1.94
  86  0.132  0.264  0.857-  25 1.91  25 1.91  29 1.94
  87  0.097  0.263  0.899-  30 1.81
  88  0.305  0.763  0.703-  26 1.90  26 1.90  21 1.94
  89  0.306  0.762  0.747-  27 1.90  27 1.90  22 1.94
  90  0.309  0.763  0.791-  28 1.90  28 1.90  23 1.94
  91  0.310  0.763  0.836-  29 1.90  29 1.90  24 1.94
  92  0.325  0.764  0.878-  25 1.89  30 1.93  30 1.93
  93  0.580  0.757  0.423-  69 1.75  66 1.92  66 1.92  49 1.98   7 2.56   4 2.71   4 2.71   4 3.06
                             4 3.06   7 3.24
 
  LATTYP: Found a simple orthorhombic cell.
 ALAT       =     2.8659999400
 B/A-ratio  =     1.5816469242
 C/A-ratio  =    34.8918360410
  
  Lattice vectors:
  
 A1 = (   0.0000000000,  -2.8659999400,   0.0000000000)
 A2 = (  -4.5329999900,   0.0000000000,   0.0000000000)
 A3 = (   0.0000000000,   0.0000000000,-100.0000000000)


Analysis of symmetry for initial positions (statically):
=====================================================================
 Subroutine PRICEL returns:
 Original cell was already a primitive cell.
 

 Routine SETGRP: Setting up the symmetry group for a 
 simple orthorhombic supercell.


 Subroutine GETGRP returns: Found  1 space group operations
 (whereof  1 operations were pure point group operations)
 out of a pool of  8 trial point group operations.


The static configuration has the point symmetry C_1 .


Analysis of symmetry for dynamics (positions and initial velocities):
=====================================================================
 Subroutine PRICEL returns:
 Original cell was already a primitive cell.
 

 Routine SETGRP: Setting up the symmetry group for a 
 simple orthorhombic supercell.


 Subroutine GETGRP returns: Found  1 space group operations
 (whereof  1 operations were pure point group operations)
 out of a pool of  8 trial point group operations.


The dynamic configuration has the point symmetry C_1 .


Analysis of magnetic symmetry:
=====================================================================

 Subroutine MAGSYM returns: Found  1 space group operations
 (whereof  1 operations were pure point group operations)
 out of a pool of  1 trial space group operations
 (whereof  1 operations were pure point group operations)
 and found also     1 'primitive' translations


The magnetic configuration has the point symmetry C_1 .


 irot  :   1
 --------------------------------------------------------------------
 isymop:   1   0   0
           0   1   0
           0   0   1

 gtrans:     0.0000000     0.0000000     0.0000000

 ptrans:     0.0000000     0.0000000     0.0000000
 rotmap:
 (   1->   1)  (   2->   2)  (   3->   3)  (   4->   4)  (   5->   5) 
 (   6->   6)  (   7->   7)  (   8->   8)  (   9->   9)  (  10->  10) 
 (  11->  11)  (  12->  12)  (  13->  13)  (  14->  14)  (  15->  15) 
 (  16->  16)  (  17->  17)  (  18->  18)  (  19->  19)  (  20->  20) 
 (  21->  21)  (  22->  22)  (  23->  23)  (  24->  24)  (  25->  25) 
 (  26->  26)  (  27->  27)  (  28->  28)  (  29->  29)  (  30->  30) 
 (  31->  31)  (  32->  32)  (  33->  33)  (  34->  34)  (  35->  35) 
 (  36->  36)  (  37->  37)  (  38->  38)  (  39->  39)  (  40->  40) 
 (  41->  41)  (  42->  42)  (  43->  43)  (  44->  44)  (  45->  45) 
 (  46->  46)  (  47->  47)  (  48->  48)  (  49->  49)  (  50->  50) 
 (  51->  51)  (  52->  52)  (  53->  53)  (  54->  54)  (  55->  55) 
 (  56->  56)  (  57->  57)  (  58->  58)  (  59->  59)  (  60->  60) 
 (  61->  61)  (  62->  62)  (  63->  63)  (  64->  64)  (  65->  65) 
 (  66->  66)  (  67->  67)  (  68->  68)  (  69->  69)  (  70->  70) 
 (  71->  71)  (  72->  72)  (  73->  73)  (  74->  74)  (  75->  75) 
 (  76->  76)  (  77->  77)  (  78->  78)  (  79->  79)  (  80->  80) 
 (  81->  81)  (  82->  82)  (  83->  83)  (  84->  84)  (  85->  85) 
 (  86->  86)  (  87->  87)  (  88->  88)  (  89->  89)  (  90->  90) 
 (  91->  91)  (  92->  92)  (  93->  93) 
 
 
 KPOINTS: Automatic mesh                          

Automatic generation of k-mesh.
Space group operators:
 irot       det(A)        alpha          n_x          n_y          n_z        tau_x        tau_y        tau_z
    1     1.000000     0.000000     1.000000     0.000000     0.000000     0.000000     0.000000     0.000000
 
 Subroutine IBZKPT returns following result:
 ===========================================
 
 Found      4 irreducible k-points:
 
 Following reciprocal coordinates:
            Coordinates               Weight
  0.000000  0.000000  0.000000      1.000000
  0.500000  0.000000  0.000000      1.000000
  0.000000  0.333333  0.000000      2.000000
  0.500000  0.333333  0.000000      2.000000
 
 Following cartesian coordinates:
            Coordinates               Weight
  0.000000  0.000000  0.000000      1.000000
  0.110302  0.000000  0.000000      1.000000
  0.000000  0.116306  0.000000      2.000000
  0.110302  0.116306  0.000000      2.000000
 
 TETIRR: Found     15 inequivalent tetrahedra from       36


--------------------------------------------------------------------------------------------------------




 Dimension of arrays:
   k-points           NKPTS =      4   k-points in BZ     NKDIM =      4   number of bands    NBANDS=    416
   number of dos      NEDOS =    301   number of ions     NIONS =     93
   non local maximal  LDIM  =      6   non local SUM 2l+1 LMDIM =     18
   total plane-waves  NPLWV = 164640
   max r-space proj   IRMAX =      1   max aug-charges    IRDMAX=   4858
   dimension x,y,z NGX =    24 NGY =   14 NGZ =  490
   dimension x,y,z NGXF=    48 NGYF=   28 NGZF=  980
   support grid    NGXF=    48 NGYF=   28 NGZF=  980
   ions per type =              30  62   1
 NGX,Y,Z   is equivalent  to a cutoff of   8.80,  8.12,  8.15 a.u.
 NGXF,Y,Z  is equivalent  to a cutoff of  17.60, 16.24, 16.29 a.u.


 I would recommend the setting:
   dimension x,y,z NGX =    22 NGY =   14 NGZ =  489
 SYSTEM =  unknown system                          
 POSCAR =  Li Mn30 O62  (P1) ~ CONTCAR (VASP)      

 Startparameter for this run:
   NWRITE =      1    write-flag & timer
   PREC   = normal    normal or accurate (medium, high low for compatibility)
   ISTART =      0    job   : 0-new  1-cont  2-samecut
   ICHARG =      2    charge: 1-file 2-atom 10-const
   ISPIN  =      2    spin polarized calculation?
   LNONCOLLINEAR =      F non collinear calculations
   LSORBIT =      F    spin-orbit coupling
   INIWAV =      1    electr: 0-lowe 1-rand  2-diag
   LASPH  =      F    aspherical Exc in radial PAW
   METAGGA=      F    non-selfconsistent MetaGGA calc.

 Electronic Relaxation 1
   ENCUT  =  400.0 eV  29.40 Ry    5.42 a.u.   7.39  4.67163.07*2*pi/ulx,y,z
   ENINI  =  400.0     initial cutoff
   ENAUG  =  500.7 eV  augmentation charge cutoff
   NELM   =     60;   NELMIN=  2; NELMDL= -5     # of ELM steps 
   EDIFF  = 0.1E-03   stopping-criterion for ELM
   LREAL  =      F    real-space projection
   NLSPLINE    = F    spline interpolate recip. space projectors
   LCOMPAT=      F    compatible to vasp.4.4
   GGA_COMPAT  = T    GGA compatible to vasp.4.4-vasp.4.6
   LMAXPAW     = -100 max onsite density
   LMAXMIX     =    4 max onsite mixed and CHGCAR
   VOSKOWN=      1    Vosko Wilk Nusair interpolation
   ROPT   =    0.00000   0.00000   0.00000
 Ionic relaxation
   EDIFFG = 0.1E-02   stopping-criterion for IOM
   NSW    =      0    number of steps for IOM
   NBLOCK =      1;   KBLOCK =      1    inner block; outer block 
   IBRION =     -1    ionic relax: 0-MD 1-quasi-New 2-CG
   NFREE  =      0    steps in history (QN), initial steepest desc. (CG)
   ISIF   =      2    stress and relaxation
   IWAVPR =     10    prediction:  0-non 1-charg 2-wave 3-comb
   ISYM   =      2    0-nonsym 1-usesym 2-fastsym
   LCORR  =      T    Harris-Foulkes like correction to forces

   POTIM  = 0.5000    time-step for ionic-motion
   TEIN   =    0.0    initial temperature
   TEBEG  =    0.0;   TEEND  =   0.0 temperature during run
   SMASS  =  -3.00    Nose mass-parameter (am)
   estimated Nose-frequenzy (Omega)   =  0.10E-29 period in steps =****** mass=  -0.470E-27a.u.
   SCALEE = 1.0000    scale energy and forces
   NPACO  =    256;   APACO  = 16.0  distance and # of slots for P.C.
   PSTRESS=    0.0 pullay stress

  Mass of Ions in am
   POMASS =  54.94 16.00  7.01
  Ionic Valenz
   ZVAL   =   7.00  6.00  1.00
  Atomic Wigner-Seitz radii
   RWIGS  =  -1.00 -1.00 -1.00
  virtual crystal weights 
   VCA    =   1.00  1.00  1.00
   NELECT =     583.0000    total number of electrons
   NUPDOWN=      -1.0000    fix difference up-down

 DOS related values:
   EMIN   =  10.00;   EMAX   =-10.00  energy-range for DOS
   EFERMI =   0.00
   ISMEAR =    -5;   SIGMA  =   0.20  broadening in eV -4-tet -1-fermi 0-gaus

 Electronic relaxation 2 (details)
   IALGO  =     38    algorithm
   LDIAG  =      T    sub-space diagonalisation (order eigenvalues)
   LSUBROT=      T    optimize rotation matrix (better conditioning)
   TURBO    =      0    0=normal 1=particle mesh
   IRESTART =      0    0=no restart 2=restart with 2 vectors
   NREBOOT  =      0    no. of reboots
   NMIN     =      0    reboot dimension
   EREF     =   0.00    reference energy to select bands
   IMIX   =      4    mixing-type and parameters
     AMIX     =   0.40;   BMIX     =  1.00
     AMIX_MAG =   1.60;   BMIX_MAG =  1.00
     AMIN     =   0.01
     WC   =   100.;   INIMIX=   1;  MIXPRE=   1;  MAXMIX= -45

 Intra band minimization:
   WEIMIN = 0.0000     energy-eigenvalue tresh-hold
   EBREAK =  0.60E-07  absolut break condition
   DEPER  =   0.30     relativ break condition  

   TIME   =   0.40     timestep for ELM

  volume/ion in A,a.u.               =      13.97        94.27
  Fermi-wavevector in a.u.,A,eV,Ry     =   1.253364  2.368514 21.373666  1.570920
  Thomas-Fermi vector in A             =   2.387220
 
 Write flags
   LWAVE  =      F    write WAVECAR
   LCHARG =      F    write CHGCAR
   LVTOT  =      F    write LOCPOT, total local potential
   LVHAR  =      F    write LOCPOT, Hartree potential only
   LELF   =      F    write electronic localiz. function (ELF)
   LORBIT =      0    0 simple, 1 ext, 2 COOP (PROOUT)


 Dipole corrections
   LMONO  =      F    monopole corrections only (constant potential shift)
   LDIPOL =      F    correct potential (dipole corrections)
   IDIPOL =      0    1-x, 2-y, 3-z, 4-all directions 
   EPSILON=  1.0000000 bulk dielectric constant

 LDA+U is selected, type is set to LDAUTYPE =  2
   angular momentum for each species LDAUL =     2   -1    0
   U (eV)           for each species LDAUU =   3.9  0.0  1.0
   J (eV)           for each species LDAUJ =   0.0  0.0  0.0
 Exchange correlation treatment:
   GGA     =    --    GGA type
   LEXCH   =     8    internal setting for exchange type
   VOSKOWN=      1    Vosko Wilk Nusair interpolation
   LHFCALC =     F    Hartree Fock is set to
   LHFONE  =     F    Hartree Fock one center treatment
   AEXX    =    0.0000 exact exchange contribution

 Linear response parameters
   LEPSILON=     F    determine dielectric tensor
   LRPA    =     F    only Hartree local field effects (RPA)
   LNABLA  =     F    use nabla operator in PAW spheres
   LVEL    =     F    velocity operator in full k-point grid
   LINTERFAST=   F  fast interpolation
   KINTER  =     0    interpolate to denser k-point grid
   CSHIFT  =0.1000    complex shift for real part using Kramers Kronig
   OMEGAMAX=  -1.0    maximum frequency
   DEG_THRESHOLD= 0.2000000E-02 threshold for treating states as degnerate
   RTIME   =    0.100 relaxation time in fs

 Orbital magnetization related:
   ORBITALMAG=     F  switch on orbital magnetization
   LCHIMAG   =     F  perturbation theory with respect to B field
   DQ        =  0.001000  dq finite difference perturbation B field



--------------------------------------------------------------------------------------------------------


 Static calculation
 charge density and potential will be updated during run
 spin polarized calculation
 Variant of blocked Davidson
 Davidson routine will perform the subspace rotation
 perform sub-space diagonalisation
    after iterative eigenvector-optimisation
 modified Broyden-mixing scheme, WC =      100.0
 initial mixing is a Kerker type mixing with AMIX =  0.4000 and BMIX =      1.0000
 Hartree-type preconditioning will be used
 using additional bands          124
 reciprocal scheme for non local part
 use partial core corrections
 calculate Harris-corrections to forces 
   (improved forces if not selfconsistent)
 use gradient corrections 
 use of overlap-Matrix (Vanderbilt PP)
 Fermi weights with tetrahedron method with Bloechl corrections


--------------------------------------------------------------------------------------------------------


  energy-cutoff  :      400.00
  volume of cell :     1299.16
      direct lattice vectors                 reciprocal lattice vectors
     4.532999990  0.000000000  0.000000000     0.220604457  0.000000000  0.000000000
     0.000000000  2.865999940  0.000000000     0.000000000  0.348918360  0.000000000
     0.000000000  0.000000000100.000000000     0.000000000  0.000000000  0.010000000

  length of vectors
     4.532999990  2.865999940100.000000000     0.220604457  0.348918360  0.010000000


 
 k-points in units of 2pi/SCALE and weight: Automatic mesh                          
   0.00000000  0.00000000  0.00000000       0.167
   0.11030223  0.00000000  0.00000000       0.167
   0.00000000  0.11630612  0.00000000       0.333
   0.11030223  0.11630612  0.00000000       0.333
 
 k-points in reciprocal lattice and weights: Automatic mesh                          
   0.00000000  0.00000000  0.00000000       0.167
   0.50000000  0.00000000  0.00000000       0.167
   0.00000000  0.33333333  0.00000000       0.333
   0.50000000  0.33333333  0.00000000       0.333
 
 position of ions in fractional coordinates (direct lattice) 
   0.07684783  0.26311639  0.62137404
   0.08087148  0.25949920  0.52819911
   0.98965220  0.75903393  0.21453252
   0.03021547  0.25739874  0.43373958
   0.97217587  0.75253284  0.30993195
   0.00607796  0.25216233  0.33560060
   0.98511067  0.75682055  0.40532202
   0.00194415  0.25795104  0.24003492
   0.96178871  0.75901160  0.50329581
   0.95986264  0.76269102  0.59636868
   0.47198626  0.26323621  0.66840796
   0.45901730  0.26163514  0.57470819
   0.46042941  0.25848446  0.48156410
   0.50385640  0.75548306  0.26211938
   0.48977811  0.25458548  0.38335699
   0.50894278  0.75274704  0.35762460
   0.47416019  0.25441885  0.28785405
   0.53641934  0.75814367  0.45635891
   0.58050339  0.76062385  0.54979833
   0.57694564  0.76326201  0.64319070
   0.97247741  0.76294666  0.69040715
   0.97467545  0.76245608  0.73465417
   0.97637506  0.76269200  0.77896154
   0.97662112  0.76317466  0.82337944
   0.98052668  0.76360720  0.86784352
   0.47286002  0.26263893  0.71251599
   0.47523097  0.26249141  0.75680143
   0.47636842  0.26292302  0.80114960
   0.47327788  0.26342804  0.84560404
   0.44892054  0.26360541  0.89002310
   0.40119475  0.26323664  0.63370525
   0.41250579  0.26038138  0.54003676
   0.79341818  0.75602658  0.19769812
   0.32933457  0.25813679  0.44801610
   0.69350700  0.75414242  0.29560463
   0.28504337  0.25251344  0.35042968
   0.72146777  0.75509639  0.39036454
   0.27863806  0.25582714  0.25494842
   0.63907018  0.75854997  0.49084857
   0.62944564  0.76183032  0.58433001
   0.65185383  0.76319711  0.67766090
   0.14291714  0.26299880  0.68053282
   0.12921552  0.26251135  0.58666381
   0.13699587  0.25889674  0.49384791
   0.77994219  0.75765642  0.24758059
   0.21939372  0.25649665  0.39862248
   0.78554855  0.75217984  0.34326809
   0.19416446  0.25276867  0.30263380
   0.79163257  0.75754938  0.44048424
   0.17846089  0.25942621  0.20537722
   0.91202280  0.75964407  0.53786122
   0.90114524  0.76316228  0.63080874
   0.74802800  0.26326971  0.65354538
   0.74513305  0.26079704  0.56033856
   0.72518359  0.25822287  0.46612523
   0.27419537  0.75455020  0.27882331
   0.71169414  0.25307092  0.36679031
   0.28504253  0.75414868  0.37453503
   0.70389657  0.25514153  0.27146764
   0.27980460  0.75841225  0.47161232
   0.29428303  0.76144806  0.56409734
   0.30113612  0.76326146  0.65796538
   0.79372656  0.26279046  0.60686307
   0.79503270  0.25908992  0.51376871
   0.20841207  0.75813140  0.23115639
   0.77006877  0.25697769  0.41381471
   0.20528203  0.75214639  0.32655164
   0.77373392  0.25235435  0.31933293
   0.19395882  0.75733985  0.42290178
   0.77668146  0.25856254  0.22338926
   0.24607500  0.75938442  0.51763766
   0.24355627  0.76307231  0.61083036
   0.64332891  0.76259580  0.72233364
   0.64592777  0.76251748  0.76661894
   0.64623046  0.76295721  0.81100277
   0.63977645  0.76345607  0.85562860
   0.58643688  0.76361979  0.90035830
   0.80313994  0.26288489  0.70020226
   0.80534390  0.26244354  0.74448028
   0.80765697  0.26271127  0.78884213
   0.80718469  0.26321037  0.83326446
   0.82447410  0.26360144  0.87852335
   0.14324743  0.26247900  0.72475610
   0.14525729  0.26264995  0.76906994
   0.14521766  0.26312405  0.81342581
   0.13158556  0.26355660  0.85725441
   0.09719796  0.26346596  0.89861373
   0.30451958  0.76268419  0.70257656
   0.30574374  0.76245757  0.74691451
   0.30852556  0.76287218  0.79119113
   0.30987869  0.76338855  0.83550202
   0.32490683  0.76360726  0.87842429
   0.58000552  0.75653834  0.42320148
 
 position of ions in cartesian coordinates  (Angst):
   0.34835122  0.75409156 62.13740380
   0.36659042  0.74372470 52.81991136
   4.48609343  2.17539119 21.45325221
   0.13696674  0.73770478 43.37395816
   4.40687321  2.15675907 30.99319504
   0.02755141  0.72269722 33.56006012
   4.46550664  2.16904764 40.53220243
   0.00881282  0.73928765 24.00349202
   4.35978822  2.17532719 50.32958111
   4.35105734  2.18587241 59.63686760
   2.13951370  0.75443496 66.84079571
   2.08072540  0.74984630 57.47081889
   2.08712651  0.74081645 48.15640992
   2.28398104  2.16521440 26.21193802
   2.22016416  0.72964196 38.33569895
   2.30703762  2.15737297 35.76246005
   2.14936816  0.72916441 28.78540457
   2.43158884  2.17283972 45.63589054
   2.63142184  2.17994791 54.97983346
   2.61529459  2.18750887 64.31906970
   4.40824010  2.18660509 69.04071494
   4.41820383  2.18519908 73.46541720
   4.42590815  2.18587524 77.89615362
   4.42702353  2.18725852 82.33794367
   4.44472742  2.18849819 86.78435198
   2.14347449  0.75272317 71.25159897
   2.15422196  0.75230037 75.68014264
   2.15937806  0.75353736 80.11495957
   2.14536862  0.75498475 84.56040422
   2.03495682  0.75549310 89.00231010
   1.81861578  0.75443619 63.37052453
   1.86988872  0.74625302 54.00367634
   3.59656462  2.16677213 19.76981165
   1.49287360  0.73982003 44.80160955
   3.14366721  2.16137212 29.56046321
   1.29210161  0.72370350 35.04296797
   3.27041341  2.16410621 39.03645361
   1.26306632  0.73320058 25.49484239
   2.89690512  2.17400417 49.08485704
   2.85327707  2.18340565 58.43300118
   2.95485340  2.18732287 67.76608985
   0.64784338  0.75375454 68.05328208
   0.58573394  0.75235751 58.66638139
   0.62100229  0.74199804 49.38479119
   3.53547793  2.17144325 24.75805936
   0.99451172  0.73511938 39.86224835
   3.56089159  2.15574737 34.32680902
   0.88014750  0.72443499 30.26338041
   3.58847045  2.17113649 44.04842418
   0.80896322  0.74351549 20.53772198
   4.13419933  2.17713986 53.78612231
   4.08489138  2.18722305 63.08087415
   3.39081092  0.75453097 65.35453772
   3.37768810  0.74744431 56.03385576
   3.28725722  0.74006674 46.61252328
   1.24292760  2.16254083 27.88233133
   3.22610954  0.72530124 36.67903135
   1.29209777  2.16139007 37.45350259
   3.19076313  0.73123560 27.14676353
   1.26835426  2.17360947 47.16123171
   1.33398498  2.18231010 56.40973352
   1.36505001  2.18750731 65.79653819
   3.59796247  0.75315744 60.68630725
   3.60388320  0.74255170 51.37687062
   0.94473191  2.17280454 23.11563949
   3.49072172  0.73649804 41.38147115
   0.93054345  2.15565151 32.65516449
   3.50733585  0.72324755 31.93329311
   0.87921535  2.17053595 42.29017840
   3.52069704  0.74104022 22.33892611
   1.11545796  2.17639570 51.76376641
   1.10404057  2.18696519 61.08303564
   2.91620994  2.18559951 72.23336423
   2.92799059  2.18537506 76.66189438
   2.92936267  2.18663533 81.10027739
   2.90010664  2.18806506 85.56285956
   2.65831838  2.18853428 90.03583008
   3.64063333  0.75342809 70.02022565
   3.65062387  0.75216317 74.44802773
   3.66110903  0.75293049 78.88421269
   3.65896817  0.75436089 83.32644641
   3.73734111  0.75548172 87.85233518
   0.64934058  0.75226480 72.47561012
   0.65845128  0.75275474 76.90699359
   0.65827167  0.75411350 81.34258110
   0.59647736  0.75535321 85.72544115
   0.44059833  0.75509342 89.86137276
   1.38038728  2.18585284 70.25765578
   1.38593636  2.18520335 74.69145141
   1.39854637  2.18639162 79.11911346
   1.40468010  2.18787153 83.55020236
   1.47280267  2.18849835 87.84242929
   2.62916502  2.16823883 42.32014776
 


--------------------------------------------------------------------------------------------------------


 k-point  1 :   0.0000 0.0000 0.0000  plane waves:   23717
 k-point  2 :   0.5000 0.0000 0.0000  plane waves:   23738
 k-point  3 :   0.0000 0.3333 0.0000  plane waves:   23596
 k-point  4 :   0.5000 0.3333 0.0000  plane waves:   23470

 maximum and minimum number of plane-waves per node :      3978     3893

 maximum number of plane-waves:     23738
 maximum index in each direction: 
   IXMAX=    7   IYMAX=    4   IZMAX=  163
   IXMIN=   -7   IYMIN=   -5   IZMIN= -163

 WARNING: aliasing errors must be expected set NGX to  30 to avoid them
 WARNING: aliasing errors must be expected set NGY to  20 to avoid them
 WARNING: aliasing errors must be expected set NGZ to 654 to avoid them
 aliasing errors are usually negligible using standard VASP settings
 and one can safely disregard these warnings

 parallel 3D FFT for wavefunctions:
    minimum data exchange during FFTs selected (reduces bandwidth)
 parallel 3D FFT for charge:
    minimum data exchange during FFTs selected (reduces bandwidth)


 total amount of memory used by VASP on root node    77474. kBytes
========================================================================

   base      :      30000. kBytes
   nonl-proj :      12812. kBytes
   fftplans  :       1804. kBytes
   grid      :       4619. kBytes
   one-center:        497. kBytes
   wavefun   :      27742. kBytes
 
 Broyden mixing: mesh for mixing (old mesh)
   NGX = 15   NGY =  9   NGZ =327
  (NGX  = 48   NGY  = 28   NGZ  =980)
  gives a total of  44145 points

 initial charge density was supplied:
 charge density of overlapping atoms calculated
 number of electron     583.0000000 magnetization     120.0000000
 keeping initial charge density in first step


--------------------------------------------------------------------------------------------------------


 Maximum index for augmentation-charges          315 (set IRDMAX)


--------------------------------------------------------------------------------------------------------


 First call to EWALD:  gamma=   0.162
 Maximum number of real-space cells 6x 9x 1
 Maximum number of reciprocal cells 1x 1x21

 FEWALD executed in parallel
    FEWALD:  cpu time    0.00: real time    0.00


----------------------------------------- Iteration    1(   1)  ---------------------------------------


    POTLOK:  cpu time    0.08: real time    0.08
    SETDIJ:  cpu time    0.01: real time    0.01
     EDDAV:  cpu time   16.86: real time   16.88
 BZINTS: Fermi energy: 18.970728;583.000000 electrons
         Band energy:4209.532333;  BLOECHL correction: -0.857024
       DOS:  cpu time    0.01: real time    0.01
    --------------------------------------------
      LOOP:  cpu time   16.97: real time   17.06

 eigenvalue-minimisations  :  6744
 total energy-change (2. order) : 0.7546925E+04  (-0.2141798E+05)
 number of electron     583.0000000 magnetization     120.0000000
 augmentation part      583.0000000 magnetization     120.0000000

 Free energy of the ion-electron system (eV)
  ---------------------------------------------------
  alpha Z        PSCENC =      1567.40908688
  Ewald energy   TEWEN  =   1581559.40737026
  -1/2 Hartree   DENC   =  -1620894.73950695
  -exchange  EXHF       =         0.00000000
  -V(xc)+E(xc)   XCENC  =      1385.81686470
  PAW double counting   =     27858.91048155   -27451.65979283
  entropy T*S    EENTRO =         0.00000000
  eigenvalues    EBANDS =      4209.53233263
  atomic energy  EATOM  =     39312.24856084
  ---------------------------------------------------
  free energy    TOTEN  =      7546.92539708 eV

  energy without entropy =     7546.92539708  energy(sigma->0) =     7546.92539708


--------------------------------------------------------------------------------------------------------




----------------------------------------- Iteration    1(   2)  ---------------------------------------


     EDDAV:  cpu time   17.18: real time   17.21
 BZINTS: Fermi energy:  5.457392;583.000000 electrons
         Band energy:***********;  BLOECHL correction: -0.211268
       DOS:  cpu time    0.01: real time    0.01
    --------------------------------------------
      LOOP:  cpu time   17.19: real time   17.30

 eigenvalue-minimisations  :  6912
 total energy-change (2. order) :-0.7135563E+04  (-0.6455896E+04)
 number of electron     583.0000000 magnetization     120.0000000
 augmentation part      583.0000000 magnetization     120.0000000

 Free energy of the ion-electron system (eV)
  ---------------------------------------------------
  alpha Z        PSCENC =      1567.40908688
  Ewald energy   TEWEN  =   1581559.40737026
  -1/2 Hartree   DENC   =  -1620894.73950695
  -exchange  EXHF       =         0.00000000
  -V(xc)+E(xc)   XCENC  =      1385.81686470
  PAW double counting   =     27858.91048155   -27451.65979283
  entropy T*S    EENTRO =         0.00000000
  eigenvalues    EBANDS =     -2926.03067117
  atomic energy  EATOM  =     39312.24856084
  ---------------------------------------------------
  free energy    TOTEN  =       411.36239328 eV

  energy without entropy =      411.36239328  energy(sigma->0) =      411.36239328


--------------------------------------------------------------------------------------------------------




----------------------------------------- Iteration    1(   3)  ---------------------------------------


     EDDAV:  cpu time   17.43: real time   17.44
 BZINTS: Fermi energy:  2.344547;583.000000 electrons
         Band energy:***********;  BLOECHL correction: -0.160011
       DOS:  cpu time    0.01: real time    0.01
    --------------------------------------------
      LOOP:  cpu time   17.44: real time   17.55

 eigenvalue-minimisations  :  7056
 total energy-change (2. order) :-0.1211594E+04  (-0.1113724E+04)
 number of electron     583.0000000 magnetization     120.0000000
 augmentation part      583.0000000 magnetization     120.0000000

 Free energy of the ion-electron system (eV)
  ---------------------------------------------------
  alpha Z        PSCENC =      1567.40908688
  Ewald energy   TEWEN  =   1581559.40737026
  -1/2 Hartree   DENC   =  -1620894.73950695
  -exchange  EXHF       =         0.00000000
  -V(xc)+E(xc)   XCENC  =      1385.81686470
  PAW double counting   =     27858.91048155   -27451.65979283
  entropy T*S    EENTRO =         0.00000000
  eigenvalues    EBANDS =     -4137.62464693
  atomic energy  EATOM  =     39312.24856084
  ---------------------------------------------------
  free energy    TOTEN  =      -800.23158247 eV

  energy without entropy =     -800.23158247  energy(sigma->0) =     -800.23158247


--------------------------------------------------------------------------------------------------------




----------------------------------------- Iteration    1(   4)  ---------------------------------------


     EDDAV:  cpu time   20.68: real time   20.71
 BZINTS: Fermi energy:  2.097193;583.000000 electrons
         Band energy:***********;  BLOECHL correction: -0.197840
       DOS:  cpu time    0.01: real time    0.01
    --------------------------------------------
      LOOP:  cpu time   20.69: real time   20.84

 eigenvalue-minimisations  :  8808
 total energy-change (2. order) :-0.7778254E+02  (-0.7603480E+02)
 number of electron     583.0000000 magnetization     120.0000000
 augmentation part      583.0000000 magnetization     120.0000000

 Free energy of the ion-electron system (eV)
  ---------------------------------------------------
  alpha Z        PSCENC =      1567.40908688
  Ewald energy   TEWEN  =   1581559.40737026
  -1/2 Hartree   DENC   =  -1620894.73950695
  -exchange  EXHF       =         0.00000000
  -V(xc)+E(xc)   XCENC  =      1385.81686470
  PAW double counting   =     27858.91048155   -27451.65979283
  entropy T*S    EENTRO =         0.00000000
  eigenvalues    EBANDS =     -4215.40719076
  atomic energy  EATOM  =     39312.24856084
  ---------------------------------------------------
  free energy    TOTEN  =      -878.01412630 eV

  energy without entropy =     -878.01412630  energy(sigma->0) =     -878.01412630


--------------------------------------------------------------------------------------------------------




----------------------------------------- Iteration    1(   5)  ---------------------------------------


     EDDAV:  cpu time   21.43: real time   21.44
 BZINTS: Fermi energy:  2.089455;583.000000 electrons
         Band energy:***********;  BLOECHL correction: -0.200346
       DOS:  cpu time    0.01: real time    0.01
    CHARGE:  cpu time    0.31: real time    0.31
    MIXING:  cpu time    0.00: real time    0.00
    --------------------------------------------
      LOOP:  cpu time   21.76: real time   21.87

 eigenvalue-minimisations  :  9232
 total energy-change (2. order) :-0.2216930E+01  (-0.2209225E+01)
 number of electron     583.0000127 magnetization     119.7923736
 augmentation part      163.2215631 magnetization      86.0840354

 Broyden mixing:
  rms(total) = 0.10669E+02    rms(broyden)= 0.10665E+02
  rms(prec ) = 0.10729E+02
  weight for this iteration     100.00

 Free energy of the ion-electron system (eV)
  ---------------------------------------------------
  alpha Z        PSCENC =      1567.40908688
  Ewald energy   TEWEN  =   1581559.40737026
  -1/2 Hartree   DENC   =  -1620894.73950695
  -exchange  EXHF       =         0.00000000
  -V(xc)+E(xc)   XCENC  =      1385.81686470
  PAW double counting   =     27858.91048155   -27451.65979283
  entropy T*S    EENTRO =         0.00000000
  eigenvalues    EBANDS =     -4217.62412084
  atomic energy  EATOM  =     39312.24856084
  ---------------------------------------------------
  free energy    TOTEN  =      -880.23105639 eV

  energy without entropy =     -880.23105639  energy(sigma->0) =     -880.23105639


--------------------------------------------------------------------------------------------------------




----------------------------------------- Iteration    1(   6)  ---------------------------------------


    POTLOK:  cpu time    0.08: real time    0.08
    SETDIJ:  cpu time    0.01: real time    0.01
     EDDAV:  cpu time   22.74: real time   22.76
 BZINTS: Fermi energy: -0.758203;583.000000 electrons
         Band energy:***********;  BLOECHL correction: -0.646066
       DOS:  cpu time    0.01: real time    0.01
    CHARGE:  cpu time    0.31: real time    0.31
    MIXING:  cpu time    0.00: real time    0.00
    --------------------------------------------
      LOOP:  cpu time   23.15: real time   23.28

 eigenvalue-minimisations  :  9888
 total energy-change (2. order) : 0.1719981E+01  (-0.1390310E+03)
 number of electron     583.0000085 magnetization     119.6613463
 augmentation part      203.9940018 magnetization     100.4777758

 Broyden mixing:
  rms(total) = 0.16779E+02    rms(broyden)= 0.16777E+02
  rms(prec ) = 0.19188E+02
  weight for this iteration     100.00

 eigenvalues of (default mixing * dielectric matrix)
  average eigenvalue GAMMA=   0.3643
  0.3643

 Free energy of the ion-electron system (eV)
  ---------------------------------------------------
  alpha Z        PSCENC =      1567.40908688
  Ewald energy   TEWEN  =   1581559.40737026
  -1/2 Hartree   DENC   =  -1620763.37404261
  -exchange  EXHF       =         0.00000000
  -V(xc)+E(xc)   XCENC  =      1463.03038963
  PAW double counting   =     30164.88306612   -29731.25461457
  entropy T*S    EENTRO =         0.00000000
  eigenvalues    EBANDS =     -4450.86089152
  atomic energy  EATOM  =     39312.24856084
  ---------------------------------------------------
  free energy    TOTEN  =      -878.51107497 eV

  energy without entropy =     -878.51107497  energy(sigma->0) =     -878.51107497


--------------------------------------------------------------------------------------------------------




----------------------------------------- Iteration    1(   7)  ---------------------------------------


    POTLOK:  cpu time    0.08: real time    0.08
    SETDIJ:  cpu time    0.01: real time    0.01
     EDDAV:  cpu time   21.31: real time   21.32
 BZINTS: Fermi energy:  5.907169;583.000000 electrons
         Band energy:***********;  BLOECHL correction: -0.160215
       DOS:  cpu time    0.01: real time    0.01
    CHARGE:  cpu time    0.31: real time    0.31
    MIXING:  cpu time    0.00: real time    0.00
    --------------------------------------------
      LOOP:  cpu time   21.73: real time   21.99

 eigenvalue-minimisations  :  9168
 total energy-change (2. order) :-0.7212661E+03  (-0.6192964E+02)
 number of electron     583.0000155 magnetization     119.6008244
 augmentation part      183.7057946 magnetization     102.9351420

 Broyden mixing:
  rms(total) = 0.21673E+02    rms(broyden)= 0.21671E+02
  rms(prec ) = 0.34167E+02
  weight for this iteration     100.00

 eigenvalues of (default mixing * dielectric matrix)
  average eigenvalue GAMMA=   0.2066
  0.3585  0.0547

 Free energy of the ion-electron system (eV)
  ---------------------------------------------------
  alpha Z        PSCENC =      1567.40908688
  Ewald energy   TEWEN  =   1581559.40737026
  -1/2 Hartree   DENC   =  -1622679.82315444
  -exchange  EXHF       =         0.00000000
  -V(xc)+E(xc)   XCENC  =      1429.69563266
  PAW double counting   =     30368.58512142   -30023.07467674
  entropy T*S    EENTRO =         0.00000000
  eigenvalues    EBANDS =     -3134.22509213
  atomic energy  EATOM  =     39312.24856084
  ---------------------------------------------------
  free energy    TOTEN  =     -1599.77715125 eV

  energy without entropy =    -1599.77715125  energy(sigma->0) =    -1599.77715125


--------------------------------------------------------------------------------------------------------




----------------------------------------- Iteration    1(   8)  ---------------------------------------


    POTLOK:  cpu time    0.08: real time    0.08
    SETDIJ:  cpu time    0.01: real time    0.01
     EDDAV:  cpu time   22.75: real time   22.77
 BZINTS: Fermi energy:  1.240947;583.000000 electrons
         Band energy:***********;  BLOECHL correction: -0.071261
       DOS:  cpu time    0.01: real time    0.01
    CHARGE:  cpu time    0.31: real time    0.31
    MIXING:  cpu time    0.00: real time    0.00
    --------------------------------------------
      LOOP:  cpu time   23.17: real time   23.30

 eigenvalue-minimisations  :  9936
 total energy-change (2. order) : 0.9509816E+03  (-0.6419377E+02)
 number of electron     583.0000143 magnetization     119.5236474
 augmentation part      164.3206680 magnetization      93.8945893

 Broyden mixing:
  rms(total) = 0.81889E+01    rms(broyden)= 0.81840E+01
  rms(prec ) = 0.90371E+01
  weight for this iteration     100.00

 eigenvalues of (default mixing * dielectric matrix)
  average eigenvalue GAMMA=   0.2507
  0.4751  0.1592  0.1179

 Free energy of the ion-electron system (eV)
  ---------------------------------------------------
  alpha Z        PSCENC =      1567.40908688
  Ewald energy   TEWEN  =   1581559.40737026
  -1/2 Hartree   DENC   =  -1621390.76094278
  -exchange  EXHF       =         0.00000000
  -V(xc)+E(xc)   XCENC  =      1422.02380285
  PAW double counting   =     30416.14076914   -30092.05291890
  entropy T*S    EENTRO =         0.00000000
  eigenvalues    EBANDS =     -3443.21123781
  atomic energy  EATOM  =     39312.24856084
  ---------------------------------------------------
  free energy    TOTEN  =      -648.79550951 eV

  energy without entropy =     -648.79550951  energy(sigma->0) =     -648.79550951


--------------------------------------------------------------------------------------------------------




----------------------------------------- Iteration    1(   9)  ---------------------------------------


    POTLOK:  cpu time    0.08: real time    0.08
    SETDIJ:  cpu time    0.01: real time    0.01
     EDDAV:  cpu time   22.53: real time   22.54
 BZINTS: Fermi energy:  1.160987;583.000000 electrons
         Band energy:***********;  BLOECHL correction: -0.035865
       DOS:  cpu time    0.01: real time    0.01
    CHARGE:  cpu time    0.31: real time    0.31
    MIXING:  cpu time    0.00: real time    0.00
    --------------------------------------------
      LOOP:  cpu time   22.94: real time   23.16

 eigenvalue-minimisations  :  9832
 total energy-change (2. order) : 0.2464528E+02  (-0.1401557E+02)
 number of electron     583.0000117 magnetization     119.4342120
 augmentation part      164.8284122 magnetization      88.7197562

 Broyden mixing:
  rms(total) = 0.59403E+01    rms(broyden)= 0.59383E+01
  rms(prec ) = 0.61372E+01
  weight for this iteration     100.00

 eigenvalues of (default mixing * dielectric matrix)
  average eigenvalue GAMMA=   0.2732
  0.6095  0.1916  0.1916  0.1000

 Free energy of the ion-electron system (eV)
  ---------------------------------------------------
  alpha Z        PSCENC =      1567.40908688
  Ewald energy   TEWEN  =   1581559.40737026
  -1/2 Hartree   DENC   =  -1621224.60862130
  -exchange  EXHF       =         0.00000000
  -V(xc)+E(xc)   XCENC  =      1426.76570799
  PAW double counting   =     30616.86210992   -30296.37956412
  entropy T*S    EENTRO =         0.00000000
  eigenvalues    EBANDS =     -3585.85487717
  atomic energy  EATOM  =     39312.24856084
  ---------------------------------------------------
  free energy    TOTEN  =      -624.15022669 eV

  energy without entropy =     -624.15022669  energy(sigma->0) =     -624.15022669


--------------------------------------------------------------------------------------------------------




----------------------------------------- Iteration    1(  10)  ---------------------------------------


    POTLOK:  cpu time    0.08: real time    0.08
    SETDIJ:  cpu time    0.01: real time    0.01
     EDDAV:  cpu time   22.28: real time   22.29
 BZINTS: Fermi energy:  0.541257;583.000000 electrons
         Band energy:***********;  BLOECHL correction: -0.067345
       DOS:  cpu time    0.01: real time    0.01
    CHARGE:  cpu time    0.31: real time    0.31
    MIXING:  cpu time    0.00: real time    0.00
    --------------------------------------------
      LOOP:  cpu time   22.69: real time   22.81

 eigenvalue-minimisations  :  9664
 total energy-change (2. order) : 0.1025745E+02  (-0.4205597E+01)
 number of electron     583.0000120 magnetization     119.3973813
 augmentation part      166.6444486 magnetization      91.1251431

 Broyden mixing:
  rms(total) = 0.50316E+01    rms(broyden)= 0.50302E+01
  rms(prec ) = 0.56897E+01
  weight for this iteration     100.00

 eigenvalues of (default mixing * dielectric matrix)
  average eigenvalue GAMMA=   0.2613
  0.5908  0.2499  0.2499  0.1080  0.1080

 Free energy of the ion-electron system (eV)
  ---------------------------------------------------
  alpha Z        PSCENC =      1567.40908688
  Ewald energy   TEWEN  =   1581559.40737026
  -1/2 Hartree   DENC   =  -1621166.00923051
  -exchange  EXHF       =         0.00000000
  -V(xc)+E(xc)   XCENC  =      1434.15199650
  PAW double counting   =     30902.90752032   -30581.88796837
  entropy T*S    EENTRO =         0.00000000
  eigenvalues    EBANDS =     -3642.12011255
  atomic energy  EATOM  =     39312.24856084
  ---------------------------------------------------
  free energy    TOTEN  =      -613.89277662 eV

  energy without entropy =     -613.89277662  energy(sigma->0) =     -613.89277662


--------------------------------------------------------------------------------------------------------




----------------------------------------- Iteration    1(  11)  ---------------------------------------


    POTLOK:  cpu time    0.08: real time    0.08
    SETDIJ:  cpu time    0.01: real time    0.01
     EDDAV:  cpu time   22.35: real time   22.35
 BZINTS: Fermi energy:  0.492742;583.000000 electrons
         Band energy:***********;  BLOECHL correction: -0.083761
       DOS:  cpu time    0.01: real time    0.01
    CHARGE:  cpu time    0.31: real time    0.31
    MIXING:  cpu time    0.00: real time    0.00
    --------------------------------------------
      LOOP:  cpu time   22.76: real time   22.86

 eigenvalue-minimisations  :  9728
 total energy-change (2. order) : 0.6700143E+01  (-0.8050554E+01)
 number of electron     583.0000110 magnetization     119.3241731
 augmentation part      166.1672793 magnetization      90.1366180

 Broyden mixing:
  rms(total) = 0.38386E+01    rms(broyden)= 0.38374E+01
  rms(prec ) = 0.39068E+01
  weight for this iteration     100.00

 eigenvalues of (default mixing * dielectric matrix)
  average eigenvalue GAMMA=   0.2796
  0.6051  0.3425  0.3425  0.1764  0.1056  0.1056

 Free energy of the ion-electron system (eV)
  ---------------------------------------------------
  alpha Z        PSCENC =      1567.40908688
  Ewald energy   TEWEN  =   1581559.40737026
  -1/2 Hartree   DENC   =  -1621172.44187596
  -exchange  EXHF       =         0.00000000
  -V(xc)+E(xc)   XCENC  =      1436.90873329
  PAW double counting   =     31013.19365020   -30690.93917664
  entropy T*S    EENTRO =         0.00000000
  eigenvalues    EBANDS =     -3632.97898246
  atomic energy  EATOM  =     39312.24856084
  ---------------------------------------------------
  free energy    TOTEN  =      -607.19263357 eV

  energy without entropy =     -607.19263357  energy(sigma->0) =     -607.19263357


--------------------------------------------------------------------------------------------------------




----------------------------------------- Iteration    1(  12)  ---------------------------------------


    POTLOK:  cpu time    0.08: real time    0.08
    SETDIJ:  cpu time    0.01: real time    0.01
     EDDAV:  cpu time   21.66: real time   21.67
 BZINTS: Fermi energy:  0.292782;583.000000 electrons
         Band energy:***********;  BLOECHL correction: -0.083419
       DOS:  cpu time    0.01: real time    0.01
    CHARGE:  cpu time    0.31: real time    0.31
    MIXING:  cpu time    0.00: real time    0.00
    --------------------------------------------
      LOOP:  cpu time   22.08: real time   22.18

 eigenvalue-minimisations  :  9328
 total energy-change (2. order) : 0.3942814E+00  (-0.7265081E+00)
 number of electron     583.0000123 magnetization     119.2797633
 augmentation part      167.1767141 magnetization      90.8160801

 Broyden mixing:
  rms(total) = 0.33010E+01    rms(broyden)= 0.33006E+01
  rms(prec ) = 0.34589E+01
  weight for this iteration     100.00

 eigenvalues of (default mixing * dielectric matrix)
  average eigenvalue GAMMA=   0.2783
  0.5831  0.3945  0.3945  0.1842  0.1842  0.1038  0.1038

 Free energy of the ion-electron system (eV)
  ---------------------------------------------------
  alpha Z        PSCENC =      1567.40908688
  Ewald energy   TEWEN  =   1581559.40737026
  -1/2 Hartree   DENC   =  -1621141.25587630
  -exchange  EXHF       =         0.00000000
  -V(xc)+E(xc)   XCENC  =      1440.15399610
  PAW double counting   =     31202.02401475   -30877.44128587
  entropy T*S    EENTRO =         0.00000000
  eigenvalues    EBANDS =     -3669.34421878
  atomic energy  EATOM  =     39312.24856084
  ---------------------------------------------------
  free energy    TOTEN  =      -606.79835212 eV

  energy without entropy =     -606.79835212  energy(sigma->0) =     -606.79835212


--------------------------------------------------------------------------------------------------------




----------------------------------------- Iteration    1(  13)  ---------------------------------------


    POTLOK:  cpu time    0.08: real time    0.08
    SETDIJ:  cpu time    0.01: real time    0.01
     EDDAV:  cpu time   21.64: real time   21.64
 BZINTS: Fermi energy:  0.105789;583.000000 electrons
         Band energy:***********;  BLOECHL correction: -0.064594
       DOS:  cpu time    0.01: real time    0.01
    CHARGE:  cpu time    0.31: real time    0.31
    MIXING:  cpu time    0.00: real time    0.00
    --------------------------------------------
      LOOP:  cpu time   22.05: real time   22.27

 eigenvalue-minimisations  :  9344
 total energy-change (2. order) :-0.1153400E+01  (-0.6912933E+00)
 number of electron     583.0000112 magnetization     119.1873057
 augmentation part      167.4355957 magnetization      90.8519498

 Broyden mixing:
  rms(total) = 0.29222E+01    rms(broyden)= 0.29219E+01
  rms(prec ) = 0.30333E+01
  weight for this iteration     100.00

 eigenvalues of (default mixing * dielectric matrix)
  average eigenvalue GAMMA=   0.3027
  0.5773  0.5062  0.5062  0.2221  0.2221  0.1785  0.1045  0.1045

 Free energy of the ion-electron system (eV)
  ---------------------------------------------------
  alpha Z        PSCENC =      1567.40908688
  Ewald energy   TEWEN  =   1581559.40737026
  -1/2 Hartree   DENC   =  -1621097.24737649
  -exchange  EXHF       =         0.00000000
  -V(xc)+E(xc)   XCENC  =      1441.80653793
  PAW double counting   =     31298.80729045   -30972.90482995
  entropy T*S    EENTRO =         0.00000000
  eigenvalues    EBANDS =     -3717.47839190
  atomic energy  EATOM  =     39312.24856084
  ---------------------------------------------------
  free energy    TOTEN  =      -607.95175197 eV

  energy without entropy =     -607.95175197  energy(sigma->0) =     -607.95175197


--------------------------------------------------------------------------------------------------------




----------------------------------------- Iteration    1(  14)  ---------------------------------------


    POTLOK:  cpu time    0.08: real time    0.08
    SETDIJ:  cpu time    0.01: real time    0.01
     EDDAV:  cpu time   22.41: real time   22.43
 BZINTS: Fermi energy:  0.175528;583.000000 electrons
         Band energy:***********;  BLOECHL correction: -0.075753
       DOS:  cpu time    0.01: real time    0.01
    CHARGE:  cpu time    0.31: real time    0.31
    MIXING:  cpu time    0.00: real time    0.00
    --------------------------------------------
      LOOP:  cpu time   22.83: real time   22.94

 eigenvalue-minimisations  :  9712
 total energy-change (2. order) :-0.1538131E+01  (-0.9061985E+00)
 number of electron     583.0000113 magnetization     118.9843716
 augmentation part      168.3072520 magnetization      91.6035944

 Broyden mixing:
  rms(total) = 0.24948E+01    rms(broyden)= 0.24945E+01
  rms(prec ) = 0.25658E+01
  weight for this iteration     100.00

 eigenvalues of (default mixing * dielectric matrix)
  average eigenvalue GAMMA=   0.3502
  0.7300  0.7300  0.5477  0.2731  0.2731  0.1947  0.1947  0.1044  0.1044

 Free energy of the ion-electron system (eV)
  ---------------------------------------------------
  alpha Z        PSCENC =      1567.40908688
  Ewald energy   TEWEN  =   1581559.40737026
  -1/2 Hartree   DENC   =  -1621051.01643947
  -exchange  EXHF       =         0.00000000
  -V(xc)+E(xc)   XCENC  =      1445.47733814
  PAW double counting   =     31484.31734532   -31156.22162184
  entropy T*S    EENTRO =         0.00000000
  eigenvalues    EBANDS =     -3771.11152340
  atomic energy  EATOM  =     39312.24856084
  ---------------------------------------------------
  free energy    TOTEN  =      -609.48988326 eV

  energy without entropy =     -609.48988326  energy(sigma->0) =     -609.48988326


--------------------------------------------------------------------------------------------------------




----------------------------------------- Iteration    1(  15)  ---------------------------------------


    POTLOK:  cpu time    0.08: real time    0.08
    SETDIJ:  cpu time    0.01: real time    0.01
     EDDAV:  cpu time   22.19: real time   22.20
 BZINTS: Fermi energy: -0.015919;583.000000 electrons
         Band energy:***********;  BLOECHL correction: -0.069014
       DOS:  cpu time    0.01: real time    0.01
    CHARGE:  cpu time    0.31: real time    0.31
    MIXING:  cpu time    0.00: real time    0.00
    --------------------------------------------
      LOOP:  cpu time   22.61: real time   22.72

 eigenvalue-minimisations  :  9648
 total energy-change (2. order) :-0.4519971E+01  (-0.1650459E+01)
 number of electron     583.0000114 magnetization     118.8003060
 augmentation part      170.1321659 magnetization      91.5804983

 Broyden mixing:
  rms(total) = 0.21622E+01    rms(broyden)= 0.21614E+01
  rms(prec ) = 0.23096E+01
  weight for this iteration     100.00

 eigenvalues of (default mixing * dielectric matrix)
  average eigenvalue GAMMA=   0.4106
  1.0401  1.0401  0.4881  0.3538  0.3538  0.2059  0.2059  0.2097  0.1045  0.1045

 Free energy of the ion-electron system (eV)
  ---------------------------------------------------
  alpha Z        PSCENC =      1567.40908688
  Ewald energy   TEWEN  =   1581559.40737026
  -1/2 Hartree   DENC   =  -1620962.35783443
  -exchange  EXHF       =         0.00000000
  -V(xc)+E(xc)   XCENC  =      1454.86443626
  PAW double counting   =     31861.13702060   -31528.94596981
  entropy T*S    EENTRO =         0.00000000
  eigenvalues    EBANDS =     -3877.77252494
  atomic energy  EATOM  =     39312.24856084
  ---------------------------------------------------
  free energy    TOTEN  =      -614.00985433 eV

  energy without entropy =     -614.00985433  energy(sigma->0) =     -614.00985433


--------------------------------------------------------------------------------------------------------




----------------------------------------- Iteration    1(  16)  ---------------------------------------


    POTLOK:  cpu time    0.08: real time    0.08
    SETDIJ:  cpu time    0.01: real time    0.01
     EDDAV:  cpu time   21.93: real time   21.94
 BZINTS: Fermi energy: -0.240705;583.000000 electrons
         Band energy:***********;  BLOECHL correction: -0.117266
       DOS:  cpu time    0.01: real time    0.01
    CHARGE:  cpu time    0.31: real time    0.31
    MIXING:  cpu time    0.00: real time    0.00
    --------------------------------------------
      LOOP:  cpu time   22.35: real time   22.46

 eigenvalue-minimisations  :  9456
 total energy-change (2. order) :-0.3678563E+01  (-0.2683036E+01)
 number of electron     583.0000112 magnetization     118.4884442
 augmentation part      171.3721515 magnetization      93.6777528

 Broyden mixing:
  rms(total) = 0.19088E+01    rms(broyden)= 0.19079E+01
  rms(prec ) = 0.19620E+01
  weight for this iteration     100.00

 eigenvalues of (default mixing * dielectric matrix)
  average eigenvalue GAMMA=   0.4560
  1.3243  1.3243  0.4755  0.4755  0.3544  0.2433  0.2433  0.1045  0.1045  0.1831
  0.1831

 Free energy of the ion-electron system (eV)
  ---------------------------------------------------
  alpha Z        PSCENC =      1567.40908688
  Ewald energy   TEWEN  =   1581559.40737026
  -1/2 Hartree   DENC   =  -1620933.79806403
  -exchange  EXHF       =         0.00000000
  -V(xc)+E(xc)   XCENC  =      1463.34776735
  PAW double counting   =     32180.94579852   -31846.56569958
  entropy T*S    EENTRO =         0.00000000
  eigenvalues    EBANDS =     -3920.68323777
  atomic energy  EATOM  =     39312.24856084
  ---------------------------------------------------
  free energy    TOTEN  =      -617.68841753 eV

  energy without entropy =     -617.68841753  energy(sigma->0) =     -617.68841753


--------------------------------------------------------------------------------------------------------




----------------------------------------- Iteration    1(  17)  ---------------------------------------


    POTLOK:  cpu time    0.08: real time    0.08
    SETDIJ:  cpu time    0.01: real time    0.01
     EDDAV:  cpu time   20.74: real time   20.74
 BZINTS: Fermi energy: -0.247300;583.000000 electrons
         Band energy:***********;  BLOECHL correction: -0.126443
       DOS:  cpu time    0.01: real time    0.01
    CHARGE:  cpu time    0.31: real time    0.31
    MIXING:  cpu time    0.00: real time    0.00
    --------------------------------------------
      LOOP:  cpu time   21.15: real time   21.26

 eigenvalue-minimisations  :  8848
 total energy-change (2. order) :-0.5070808E+01  (-0.9917772E+00)
 number of electron     583.0000123 magnetization     118.4427545
 augmentation part      173.7252334 magnetization      95.4740598

 Broyden mixing:
  rms(total) = 0.23099E+01    rms(broyden)= 0.23092E+01
  rms(prec ) = 0.23544E+01
  weight for this iteration     100.00

 eigenvalues of (default mixing * dielectric matrix)
  average eigenvalue GAMMA=   0.4367
  1.3441  1.3441  0.4994  0.4994  0.3500  0.2445  0.2445  0.1045  0.1045  0.1777
  0.1777  0.1497

 Free energy of the ion-electron system (eV)
  ---------------------------------------------------
  alpha Z        PSCENC =      1567.40908688
  Ewald energy   TEWEN  =   1581559.40737026
  -1/2 Hartree   DENC   =  -1620848.62142267
  -exchange  EXHF       =         0.00000000
  -V(xc)+E(xc)   XCENC  =      1479.04053175
  PAW double counting   =     32664.27790548   -32328.49682581
  entropy T*S    EENTRO =         0.00000000
  eigenvalues    EBANDS =     -4028.02443275
  atomic energy  EATOM  =     39312.24856084
  ---------------------------------------------------
  free energy    TOTEN  =      -622.75922601 eV

  energy without entropy =     -622.75922601  energy(sigma->0) =     -622.75922601


--------------------------------------------------------------------------------------------------------




----------------------------------------- Iteration    1(  18)  ---------------------------------------


    POTLOK:  cpu time    0.08: real time    0.08
    SETDIJ:  cpu time    0.01: real time    0.01
     EDDAV:  cpu time   19.82: real time   19.84
 BZINTS: Fermi energy: -0.237136;583.000000 electrons
         Band energy:***********;  BLOECHL correction: -0.121760
       DOS:  cpu time    0.01: real time    0.01
    CHARGE:  cpu time    0.31: real time    0.31
    MIXING:  cpu time    0.00: real time    0.00
    --------------------------------------------
      LOOP:  cpu time   20.24: real time   20.35

 eigenvalue-minimisations  :  8336
 total energy-change (2. order) : 0.9060912E+00  (-0.2406980E+00)
 number of electron     583.0000120 magnetization     118.3374503
 augmentation part      173.7883932 magnetization      95.6358342

 Broyden mixing:
  rms(total) = 0.22151E+01    rms(broyden)= 0.22151E+01
  rms(prec ) = 0.22522E+01
  weight for this iteration     100.00

 eigenvalues of (default mixing * dielectric matrix)
  average eigenvalue GAMMA=   0.4750
  1.4311  1.4311  0.5924  0.5924  0.3560  0.3560  0.3463  0.2429  0.2429  0.1045
  0.1045  0.1877  0.1877

 Free energy of the ion-electron system (eV)
  ---------------------------------------------------
  alpha Z        PSCENC =      1567.40908688
  Ewald energy   TEWEN  =   1581559.40737026
  -1/2 Hartree   DENC   =  -1620860.99776832
  -exchange  EXHF       =         0.00000000
  -V(xc)+E(xc)   XCENC  =      1481.07712580
  PAW double counting   =     32700.20061812   -32365.77656611
  entropy T*S    EENTRO =         0.00000000
  eigenvalues    EBANDS =     -4015.42156231
  atomic energy  EATOM  =     39312.24856084
  ---------------------------------------------------
  free energy    TOTEN  =      -621.85313484 eV

  energy without entropy =     -621.85313484  energy(sigma->0) =     -621.85313484


--------------------------------------------------------------------------------------------------------




----------------------------------------- Iteration    1(  19)  ---------------------------------------


    POTLOK:  cpu time    0.08: real time    0.08
    SETDIJ:  cpu time    0.01: real time    0.01
     EDDAV:  cpu time   20.70: real time   20.71
 BZINTS: Fermi energy: -0.258071;583.000000 electrons
         Band energy:***********;  BLOECHL correction: -0.141215
       DOS:  cpu time    0.01: real time    0.01
    CHARGE:  cpu time    0.31: real time    0.31
    MIXING:  cpu time    0.00: real time    0.00
    --------------------------------------------
      LOOP:  cpu time   21.12: real time   21.23

 eigenvalue-minimisations  :  8840
 total energy-change (2. order) :-0.2096986E+00  (-0.8784572E-01)
 number of electron     583.0000124 magnetization     118.2335413
 augmentation part      173.7812792 magnetization      95.5354279

 Broyden mixing:
  rms(total) = 0.21680E+01    rms(broyden)= 0.21679E+01
  rms(prec ) = 0.22058E+01
  weight for this iteration     100.00

 eigenvalues of (default mixing * dielectric matrix)
  average eigenvalue GAMMA=   0.4918
  1.5047  1.5047  0.7220  0.7220  0.4054  0.4054  0.3290  0.1045  0.1045  0.2486
  0.2486  0.1970  0.1970  0.1914

 Free energy of the ion-electron system (eV)
  ---------------------------------------------------
  alpha Z        PSCENC =      1567.40908688
  Ewald energy   TEWEN  =   1581559.40737026
  -1/2 Hartree   DENC   =  -1620871.71493376
  -exchange  EXHF       =         0.00000000
  -V(xc)+E(xc)   XCENC  =      1483.34950122
  PAW double counting   =     32754.52195009   -32422.48682134
  entropy T*S    EENTRO =         0.00000000
  eigenvalues    EBANDS =     -4004.79754767
  atomic energy  EATOM  =     39312.24856084
  ---------------------------------------------------
  free energy    TOTEN  =      -622.06283348 eV

  energy without entropy =     -622.06283348  energy(sigma->0) =     -622.06283348


--------------------------------------------------------------------------------------------------------




----------------------------------------- Iteration    1(  20)  ---------------------------------------


    POTLOK:  cpu time    0.08: real time    0.08
    SETDIJ:  cpu time    0.01: real time    0.01
     EDDAV:  cpu time   20.95: real time   20.96
 BZINTS: Fermi energy: -0.329804;583.000000 electrons
         Band energy:***********;  BLOECHL correction: -0.146490
       DOS:  cpu time    0.01: real time    0.01
    CHARGE:  cpu time    0.31: real time    0.31
    MIXING:  cpu time    0.00: real time    0.00
    --------------------------------------------
      LOOP:  cpu time   21.36: real time   21.49

 eigenvalue-minimisations  :  8944
 total energy-change (2. order) :-0.6366130E+00  (-0.1159155E+00)
 number of electron     583.0000117 magnetization     118.1547795
 augmentation part      173.8027520 magnetization      96.6034392

 Broyden mixing:
  rms(total) = 0.21341E+01    rms(broyden)= 0.21339E+01
  rms(prec ) = 0.21452E+01
  weight for this iteration     100.00

 eigenvalues of (default mixing * dielectric matrix)
  average eigenvalue GAMMA=   0.4973
  1.5488  1.5488  0.8301  0.8301  0.4450  0.4450  0.3242  0.2605  0.2605  0.1045
  0.1045  0.2321  0.1945  0.1945  0.1367

 Free energy of the ion-electron system (eV)
  ---------------------------------------------------
  alpha Z        PSCENC =      1567.40908688
  Ewald energy   TEWEN  =   1581559.40737026
  -1/2 Hartree   DENC   =  -1620872.33023308
  -exchange  EXHF       =         0.00000000
  -V(xc)+E(xc)   XCENC  =      1484.80266039
  PAW double counting   =     32804.67017439   -32474.29958086
  entropy T*S    EENTRO =         0.00000000
  eigenvalues    EBANDS =     -4004.60748532
  atomic energy  EATOM  =     39312.24856084
  ---------------------------------------------------
  free energy    TOTEN  =      -622.69944649 eV

  energy without entropy =     -622.69944649  energy(sigma->0) =     -622.69944649


--------------------------------------------------------------------------------------------------------




----------------------------------------- Iteration    1(  21)  ---------------------------------------


    POTLOK:  cpu time    0.08: real time    0.08
    SETDIJ:  cpu time    0.01: real time    0.01
     EDDAV:  cpu time   20.47: real time   20.49
 BZINTS: Fermi energy: -0.317825;583.000000 electrons
         Band energy:***********;  BLOECHL correction: -0.133785
       DOS:  cpu time    0.01: real time    0.01
    CHARGE:  cpu time    0.31: real time    0.31
    MIXING:  cpu time    0.00: real time    0.00
    --------------------------------------------
      LOOP:  cpu time   20.89: real time   21.02

 eigenvalue-minimisations  :  8704
 total energy-change (2. order) :-0.9023338E-01  (-0.3630295E-01)
 number of electron     583.0000116 magnetization     118.1436273
 augmentation part      173.8518022 magnetization      96.8298506

 Broyden mixing:
  rms(total) = 0.21117E+01    rms(broyden)= 0.21116E+01
  rms(prec ) = 0.21262E+01
  weight for this iteration     100.00

 eigenvalues of (default mixing * dielectric matrix)
  average eigenvalue GAMMA=   0.5068
  1.5661  1.5661  0.9212  0.9212  0.4685  0.4685  0.2947  0.2947  0.3195  0.1045
  0.1045  0.2484  0.2484  0.1999  0.1999  0.1826

 Free energy of the ion-electron system (eV)
  ---------------------------------------------------
  alpha Z        PSCENC =      1567.40908688
  Ewald energy   TEWEN  =   1581559.40737026
  -1/2 Hartree   DENC   =  -1620876.61052688
  -exchange  EXHF       =         0.00000000
  -V(xc)+E(xc)   XCENC  =      1485.69881520
  PAW double counting   =     32834.60826243   -32505.72191335
  entropy T*S    EENTRO =         0.00000000
  eigenvalues    EBANDS =     -3999.82933524
  atomic energy  EATOM  =     39312.24856084
  ---------------------------------------------------
  free energy    TOTEN  =      -622.78967987 eV

  energy without entropy =     -622.78967987  energy(sigma->0) =     -622.78967987


--------------------------------------------------------------------------------------------------------




----------------------------------------- Iteration    1(  22)  ---------------------------------------


    POTLOK:  cpu time    0.08: real time    0.08
    SETDIJ:  cpu time    0.01: real time    0.01
     EDDAV:  cpu time   17.66: real time   17.67
 BZINTS: Fermi energy: -0.315162;583.000000 electrons
         Band energy:***********;  BLOECHL correction: -0.130209
       DOS:  cpu time    0.01: real time    0.01
    CHARGE:  cpu time    0.31: real time    0.31
    MIXING:  cpu time    0.00: real time    0.00
    --------------------------------------------
      LOOP:  cpu time   18.08: real time   18.20

 eigenvalue-minimisations  :  7168
 total energy-change (2. order) : 0.4059688E-01  (-0.8632113E-02)
 number of electron     583.0000115 magnetization     118.1193117
 augmentation part      173.8426771 magnetization      96.8111667

 Broyden mixing:
  rms(total) = 0.21109E+01    rms(broyden)= 0.21109E+01
  rms(prec ) = 0.21235E+01
  weight for this iteration     100.00

 eigenvalues of (default mixing * dielectric matrix)
  average eigenvalue GAMMA=   0.4992
  1.5638  1.5638  0.9579  0.9579  0.4751  0.4751  0.3713  0.3713  0.3230  0.2492
  0.2492  0.1045  0.1045  0.1983  0.1983  0.1994  0.1237

 Free energy of the ion-electron system (eV)
  ---------------------------------------------------
  alpha Z        PSCENC =      1567.40908688
  Ewald energy   TEWEN  =   1581559.40737026
  -1/2 Hartree   DENC   =  -1620878.21662429
  -exchange  EXHF       =         0.00000000
  -V(xc)+E(xc)   XCENC  =      1485.79410649
  PAW double counting   =     32837.48539246   -32508.77235098
  entropy T*S    EENTRO =         0.00000000
  eigenvalues    EBANDS =     -3998.10462465
  atomic energy  EATOM  =     39312.24856084
  ---------------------------------------------------
  free energy    TOTEN  =      -622.74908299 eV

  energy without entropy =     -622.74908299  energy(sigma->0) =     -622.74908299


--------------------------------------------------------------------------------------------------------




----------------------------------------- Iteration    1(  23)  ---------------------------------------


    POTLOK:  cpu time    0.08: real time    0.08
    SETDIJ:  cpu time    0.01: real time    0.01
     EDDAV:  cpu time   21.47: real time   21.49
 BZINTS: Fermi energy: -0.310593;583.000000 electrons
         Band energy:***********;  BLOECHL correction: -0.135589
       DOS:  cpu time    0.01: real time    0.01
    CHARGE:  cpu time    0.31: real time    0.31
    MIXING:  cpu time    0.00: real time    0.00
    --------------------------------------------
      LOOP:  cpu time   21.90: real time   22.03

 eigenvalue-minimisations  :  9224
 total energy-change (2. order) : 0.8118154E-01  (-0.1271360E-01)
 number of electron     583.0000117 magnetization     118.0381183
 augmentation part      173.8433538 magnetization      96.6951861

 Broyden mixing:
  rms(total) = 0.20857E+01    rms(broyden)= 0.20857E+01
  rms(prec ) = 0.21007E+01
  weight for this iteration     100.00

 eigenvalues of (default mixing * dielectric matrix)
  average eigenvalue GAMMA=   0.5149
  1.5967  1.5967  1.0260  1.0260  0.5840  0.5840  0.4099  0.4099  0.3233  0.2559
  0.2559  0.1045  0.1045  0.2237  0.2237  0.1865  0.1865  0.1702

 Free energy of the ion-electron system (eV)
  ---------------------------------------------------
  alpha Z        PSCENC =      1567.40908688
  Ewald energy   TEWEN  =   1581559.40737026
  -1/2 Hartree   DENC   =  -1620881.03831305
  -exchange  EXHF       =         0.00000000
  -V(xc)+E(xc)   XCENC  =      1485.83224515
  PAW double counting   =     32840.70065503   -32512.19795296
  entropy T*S    EENTRO =         0.00000000
  eigenvalues    EBANDS =     -3995.02955361
  atomic energy  EATOM  =     39312.24856084
  ---------------------------------------------------
  free energy    TOTEN  =      -622.66790145 eV

  energy without entropy =     -622.66790145  energy(sigma->0) =     -622.66790145


--------------------------------------------------------------------------------------------------------




----------------------------------------- Iteration    1(  24)  ---------------------------------------


    POTLOK:  cpu time    0.08: real time    0.08
    SETDIJ:  cpu time    0.01: real time    0.01
     EDDAV:  cpu time   22.03: real time   22.04
 BZINTS: Fermi energy: -0.280547;583.000000 electrons
         Band energy:***********;  BLOECHL correction: -0.108675
       DOS:  cpu time    0.01: real time    0.01
    CHARGE:  cpu time    0.31: real time    0.31
    MIXING:  cpu time    0.00: real time    0.00
    --------------------------------------------
      LOOP:  cpu time   22.45: real time   22.56

 eigenvalue-minimisations  :  9544
 total energy-change (2. order) : 0.1558583E+00  (-0.6353560E-01)
 number of electron     583.0000113 magnetization     117.9704511
 augmentation part      173.8073704 magnetization      96.7186723

 Broyden mixing:
  rms(total) = 0.20447E+01    rms(broyden)= 0.20447E+01
  rms(prec ) = 0.20571E+01
  weight for this iteration     100.00

 eigenvalues of (default mixing * dielectric matrix)
  average eigenvalue GAMMA=   0.5461
  1.6097  1.6097  1.2810  1.2810  0.6949  0.6949  0.4284  0.4284  0.3070  0.2874
  0.2874  0.1045  0.1045  0.2505  0.2505  0.2224  0.1924  0.1924  0.1498

 Free energy of the ion-electron system (eV)
  ---------------------------------------------------
  alpha Z        PSCENC =      1567.40908688
  Ewald energy   TEWEN  =   1581559.40737026
  -1/2 Hartree   DENC   =  -1620884.51861918
  -exchange  EXHF       =         0.00000000
  -V(xc)+E(xc)   XCENC  =      1486.02771719
  PAW double counting   =     32847.52342673   -32519.36026946
  entropy T*S    EENTRO =         0.00000000
  eigenvalues    EBANDS =     -3991.24931644
  atomic energy  EATOM  =     39312.24856084
  ---------------------------------------------------
  free energy    TOTEN  =      -622.51204318 eV

  energy without entropy =     -622.51204318  energy(sigma->0) =     -622.51204318


--------------------------------------------------------------------------------------------------------




----------------------------------------- Iteration    1(  25)  ---------------------------------------


    POTLOK:  cpu time    0.08: real time    0.08
    SETDIJ:  cpu time    0.01: real time    0.01
     EDDAV:  cpu time   21.99: real time   22.00
 BZINTS: Fermi energy: -0.272618;583.000000 electrons
         Band energy:***********;  BLOECHL correction: -0.114114
       DOS:  cpu time    0.01: real time    0.01
    CHARGE:  cpu time    0.31: real time    0.31
    MIXING:  cpu time    0.00: real time    0.00
    --------------------------------------------
      LOOP:  cpu time   22.41: real time   22.54

 eigenvalue-minimisations  :  9520
 total energy-change (2. order) : 0.2466305E+00  (-0.1388421E-01)
 number of electron     583.0000114 magnetization     117.8251431
 augmentation part      173.7801020 magnetization      96.5610167

 Broyden mixing:
  rms(total) = 0.19863E+01    rms(broyden)= 0.19863E+01
  rms(prec ) = 0.19978E+01
  weight for this iteration     100.00

[...]
   -.143E+02 0.861E-02 0.486E+03   0.143E+02 -.944E-02 -.507E+03   -.168E+00 -.183E-02 0.102E+01   0.275E-01 0.460E-02 0.205E+02
   -.114E+02 -.267E-02 -.159E+04   0.115E+02 -.214E-03 0.159E+04   -.185E+00 -.772E-03 0.105E+01   0.147E+00 0.392E-02 -.335E+01
   0.384E+00 0.765E-02 -.271E+04   -.233E+00 -.422E-02 0.272E+04   0.140E-01 0.140E-02 0.571E-01   -.238E+00 -.443E-02 -.442E+01
   -.319E+00 0.814E-02 -.390E+04   -.198E-01 -.706E-02 0.390E+04   -.155E-01 -.498E-04 0.105E+00   0.379E+00 0.176E-04 -.404E+01
   0.319E+00 0.111E-01 -.509E+04   -.487E+00 -.104E-01 0.509E+04   -.404E-01 0.155E-02 -.117E+00   0.243E+00 -.198E-02 0.439E+01
   0.147E+01 0.759E-02 -.628E+04   -.154E+01 -.653E-02 0.627E+04   0.319E-01 0.311E-03 -.885E-01   -.254E-01 -.100E-02 0.384E+01
   0.262E+02 0.128E-01 -.747E+04   -.249E+02 -.133E-01 0.746E+04   -.405E+00 -.115E-03 0.333E+00   -.102E+01 0.384E-04 0.862E+01
   0.319E+00 0.537E-02 -.330E+04   -.147E+00 -.636E-02 0.331E+04   0.279E-01 0.269E-03 0.780E-01   -.220E+00 0.162E-02 -.490E+01
   0.361E+00 0.128E-01 -.450E+04   -.156E+00 -.130E-01 0.450E+04   0.392E-01 0.929E-03 0.337E-02   -.291E+00 0.151E-03 0.129E+00
   0.108E+01 0.633E-02 -.568E+04   -.887E+00 -.609E-02 0.568E+04   -.501E-01 0.310E-03 -.218E-01   -.170E+00 -.327E-03 0.365E+01
   -.564E+01 -.375E-02 -.687E+04   0.568E+01 0.254E-02 0.687E+04   -.274E-01 -.351E-03 -.112E-01   0.138E+00 0.165E-02 0.428E+01
   -.338E+02 -.289E-01 -.807E+04   0.358E+02 0.289E-01 0.805E+04   -.406E+00 0.291E-03 -.115E+01   -.151E+01 0.355E-03 0.212E+02
   0.221E+02 -.874E-02 -.117E+04   -.224E+02 0.171E-01 0.116E+04   0.607E+00 -.439E-02 0.105E+02   -.159E+00 -.429E-02 0.235E+01
   0.148E+02 -.973E-01 0.634E+03   -.136E+02 0.149E+00 -.661E+03   -.146E+01 -.516E-01 0.107E+02   0.208E+00 -.356E-04 0.162E+02
   0.111E+03 0.416E+00 0.644E+04   -.125E+03 0.313E-01 -.647E+04   0.106E+02 -.268E+00 0.234E+02   0.403E+01 -.223E+00 0.131E+02
   0.636E+02 -.788E-02 0.234E+04   -.740E+02 0.281E-01 -.236E+04   0.110E+02 -.277E-01 0.424E+01   -.529E+00 0.789E-03 0.147E+02
   -.486E+02 -.107E+00 0.503E+04   0.574E+02 0.191E+00 -.494E+04   -.842E+01 -.934E-01 0.301E+01   -.191E+00 0.406E-02 -.936E+02
   0.571E+02 -.103E+00 0.405E+04   -.691E+02 0.139E+00 -.399E+04   0.127E+02 -.144E-01 -.200E+01   -.787E+00 -.130E-01 -.608E+02
   -.592E+02 0.176E+00 0.328E+04   0.698E+02 -.319E+00 -.326E+04   -.122E+02 0.122E+00 0.169E+01   0.114E+01 0.181E-01 -.238E+02
   0.560E+02 0.129E+00 0.577E+04   -.687E+02 -.225E+00 -.568E+04   0.132E+02 0.878E-01 -.187E+00   -.274E+00 0.105E-01 -.928E+02
   -.263E+02 0.277E-01 0.150E+04   0.280E+02 -.490E-01 -.150E+04   -.199E+01 0.203E-01 -.992E+01   0.319E+00 0.108E-02 0.156E+02
   -.170E+02 0.879E-01 -.332E+03   0.169E+02 -.129E+00 0.329E+03   0.594E-01 0.461E-01 -.115E+02   0.168E-01 -.639E-02 0.143E+02
   -.317E+02 -.678E-02 -.208E+04   0.337E+02 0.251E-01 0.210E+04   -.144E+01 -.116E-01 -.828E+01   -.572E+00 -.738E-02 -.403E+01
   -.739E+01 0.176E-01 -.206E+04   0.585E+01 -.357E-01 0.205E+04   0.118E+01 0.392E-02 0.121E+02   0.285E+00 0.129E-01 -.451E+01
   -.169E+02 -.731E-01 -.275E+03   0.159E+02 0.117E+00 0.250E+03   0.924E+00 -.473E-01 0.109E+02   0.108E+00 0.332E-02 0.141E+02
   -.180E+02 -.434E-01 0.153E+04   0.181E+02 0.686E-01 -.155E+04   0.316E+00 -.223E-01 0.960E+01   -.288E+00 -.143E-02 0.156E+02
   0.524E+02 -.113E+00 0.588E+04   -.622E+02 0.213E+00 -.579E+04   0.938E+01 -.939E-01 0.300E+01   0.288E+00 -.120E-01 -.902E+02
   -.628E+02 -.938E-01 0.313E+04   0.723E+02 0.213E+00 -.311E+04   -.124E+02 -.119E+00 -.373E+01   0.307E+01 -.712E-02 -.139E+02
   0.507E+02 -.156E-02 0.416E+04   -.577E+02 -.250E-01 -.409E+04   0.930E+01 0.294E-01 0.713E+00   -.206E+01 0.213E-02 -.650E+02
   -.551E+02 0.838E-01 0.493E+04   0.671E+02 -.159E+00 -.484E+04   -.125E+02 0.771E-01 0.606E+00   0.307E+00 0.132E-02 -.927E+02
   0.424E+02 0.352E-01 0.242E+04   -.530E+02 -.657E-01 -.243E+04   0.103E+02 0.309E-01 -.238E+01   0.165E+00 0.115E-02 0.143E+02
   -.183E+03 -.188E-01 0.648E+04   0.194E+03 -.504E+00 -.648E+04   -.103E+02 0.515E+00 0.131E+02   0.615E-02 0.236E-01 -.137E+02
   0.164E+02 0.578E-01 0.572E+03   -.161E+02 -.105E+00 -.577E+03   -.579E-01 0.481E-01 -.116E+02   -.123E+00 0.154E-02 0.159E+02
   0.204E+02 0.211E-01 -.121E+04   -.211E+02 -.306E-01 0.122E+04   0.684E+00 0.592E-02 -.949E+01   -.370E-01 0.237E-02 0.385E+01
   -.177E+03 0.177E-02 -.162E+04   0.212E+03 -.321E-02 0.163E+04   -.347E+02 -.161E-02 -.685E+01   0.223E+00 0.301E-02 -.450E+01
   -.174E+03 0.812E-01 0.148E+03   0.208E+03 -.113E+00 -.156E+03   -.346E+02 0.333E-01 -.837E+01   0.400E-01 -.393E-02 0.166E+02
   -.190E+03 0.398E-01 0.198E+04   0.224E+03 -.475E-01 -.199E+04   -.350E+02 0.284E-02 -.618E+01   0.705E+00 0.140E-02 0.157E+02
   0.184E+03 0.690E-01 0.536E+04   -.220E+03 -.102E+00 -.527E+04   0.353E+02 0.273E-01 0.543E+01   0.296E-01 0.428E-02 -.947E+02
   -.189E+03 0.739E-01 0.372E+04   0.219E+03 -.164E+00 -.367E+04   -.346E+02 0.929E-01 -.400E+01   0.458E+01 0.515E-02 -.476E+02
   0.190E+03 -.129E+00 0.360E+04   -.220E+03 0.229E+00 -.356E+04   0.332E+02 -.109E+00 0.109E+01   -.384E+01 0.160E-04 -.394E+02
   -.185E+03 -.146E+00 0.546E+04   0.220E+03 0.188E+00 -.536E+04   -.353E+02 -.309E-01 -.190E+01   -.648E-02 -.490E-02 -.950E+02
   0.183E+03 -.378E-01 0.193E+04   -.218E+03 0.496E-01 -.195E+04   0.361E+02 -.110E-01 0.513E+01   -.522E+00 0.662E-03 0.155E+02
   0.174E+03 -.792E-01 0.148E+03   -.208E+03 0.115E+00 -.172E+03   0.347E+02 -.374E-01 0.771E+01   -.113E+00 0.494E-03 0.160E+02
   0.177E+03 0.143E-01 -.163E+04   -.212E+03 -.156E-01 0.163E+04   0.348E+02 0.428E-03 0.775E+01   -.266E+00 0.458E-03 -.476E+01
   0.175E+03 0.534E-01 -.750E+03   -.209E+03 -.650E-01 0.745E+03   0.351E+02 0.132E-01 -.830E+01   -.981E-01 -.440E-02 0.133E+02
   0.176E+03 0.338E-01 0.106E+04   -.210E+03 -.537E-01 -.107E+04   0.345E+02 0.122E-01 -.830E+01   0.159E+00 0.862E-02 0.149E+02
   -.191E+03 0.101E+00 0.617E+04   0.228E+03 -.156E+00 -.610E+04   -.342E+02 0.469E-01 0.335E+01   -.238E+01 0.121E-01 -.737E+02
   0.166E+03 0.800E-01 0.280E+04   -.179E+03 -.114E+00 -.280E+04   0.163E+02 0.314E-01 -.473E+01   -.364E+01 0.320E-02 0.294E+01
   -.190E+03 -.220E-01 0.450E+04   0.220E+03 0.660E-02 -.442E+04   -.347E+02 0.149E-01 0.439E+01   0.393E+01 0.306E-02 -.799E+02
   0.188E+03 -.881E-01 0.460E+04   -.220E+03 0.105E+00 -.451E+04   0.349E+02 -.846E-02 -.310E+01   -.285E+01 -.373E-02 -.856E+02
   -.158E+03 -.199E-01 0.271E+04   0.168E+03 0.553E-01 -.273E+04   -.123E+02 -.365E-01 0.925E+01   0.242E+01 -.161E-02 0.109E+02
   0.203E+03 -.108E+00 0.626E+04   -.240E+03 0.134E+00 -.620E+04   0.312E+02 -.311E-01 0.596E+00   0.435E+01 0.211E-01 -.590E+02
   -.175E+03 -.581E-01 0.106E+04   0.210E+03 0.760E-01 -.108E+04   -.347E+02 -.680E-02 0.746E+01   -.899E-01 -.883E-02 0.147E+02
   -.175E+03 -.134E-01 -.755E+03   0.210E+03 0.301E-01 0.735E+03   -.350E+02 -.176E-01 0.758E+01   -.286E-01 -.438E-03 0.126E+02
   -.173E+02 -.255E-01 -.310E+04   0.155E+02 0.286E-01 0.311E+04   0.143E+01 -.495E-02 -.113E+02   0.261E+00 0.320E-02 -.410E+01
   -.168E+02 0.199E-01 -.412E+04   0.153E+02 -.180E-01 0.413E+04   0.117E+01 0.814E-02 -.117E+02   0.271E+00 -.955E-02 0.182E+01
   -.169E+02 0.438E-01 -.513E+04   0.152E+02 -.268E-01 0.514E+04   0.160E+01 0.156E-01 -.116E+02   0.337E-01 -.293E-01 0.272E+01
   -.190E+02 0.163E-01 -.616E+04   0.182E+02 -.237E-01 0.617E+04   0.829E+00 0.663E-02 -.116E+02   0.630E-01 0.834E-03 0.362E+01
   -.773E+02 0.182E-01 -.718E+04   0.945E+02 -.187E-01 0.719E+04   -.174E+02 0.167E-02 -.293E+02   -.498E-01 -.164E-02 0.221E+02
   0.168E+02 -.289E-01 -.259E+04   -.152E+02 0.396E-01 0.260E+04   -.159E+01 -.152E-01 -.120E+02   0.142E-01 0.449E-02 -.313E+01
   0.162E+02 -.672E-02 -.361E+04   -.147E+02 0.621E-02 0.362E+04   -.161E+01 -.176E-02 -.114E+02   0.122E+00 0.161E-02 -.228E+01
   0.163E+02 0.227E-01 -.463E+04   -.143E+02 -.186E-01 0.464E+04   -.147E+01 0.102E-01 -.125E+02   -.536E+00 -.126E-01 0.427E+01
   0.187E+02 0.186E-01 -.564E+04   -.171E+02 -.265E-01 0.565E+04   -.172E+01 0.122E-01 -.117E+02   0.250E-01 -.236E-02 0.309E+01
   0.256E+02 -.348E-02 -.671E+04   -.302E+02 0.500E-02 0.671E+04   0.446E+01 -.177E-02 -.163E+02   0.140E+00 -.149E-03 0.127E+02
   -.148E+02 0.107E-01 -.308E+04   0.131E+02 -.154E-01 0.307E+04   0.237E+01 0.782E-02 0.121E+02   -.669E+00 -.126E-02 -.395E+01
   -.159E+02 -.247E-01 -.410E+04   0.137E+02 0.269E-01 0.409E+04   0.193E+01 -.882E-02 0.113E+02   0.257E+00 0.721E-02 0.257E+01
   -.160E+02 -.390E-01 -.511E+04   0.136E+02 0.330E-01 0.510E+04   0.226E+01 -.144E-01 0.119E+02   0.142E+00 0.185E-01 0.356E+01
   -.594E+01 -.197E-01 -.612E+04   0.399E-01 0.271E-01 0.610E+04   0.542E+01 -.990E-02 0.160E+02   0.462E+00 0.244E-02 0.408E+01
   0.909E+02 0.306E-02 -.714E+04   -.115E+03 -.751E-02 0.714E+04   0.242E+02 0.456E-02 -.168E+02   0.401E+00 0.526E-03 0.220E+02
   0.147E+02 0.213E-01 -.257E+04   -.129E+02 -.308E-01 0.256E+04   -.256E+01 0.152E-01 0.120E+02   0.763E+00 -.509E-02 -.362E+01
   0.164E+02 -.216E-01 -.359E+04   -.143E+02 0.185E-01 0.358E+04   -.188E+01 0.241E-02 0.120E+02   -.168E+00 0.361E-02 -.165E+01
   0.163E+02 -.407E-01 -.461E+04   -.137E+02 0.310E-01 0.459E+04   -.269E+01 -.151E-01 0.115E+02   0.132E+00 0.223E-01 0.486E+01
   0.126E+02 -.161E-01 -.562E+04   -.947E+01 0.259E-01 0.560E+04   -.282E+01 -.993E-02 0.132E+02   -.268E+00 -.663E-03 0.360E+01
   -.171E+02 0.578E-02 -.662E+04   0.300E+02 -.697E-02 0.659E+04   -.126E+02 0.111E-02 0.139E+02   -.475E+00 -.232E-03 0.136E+02
   0.840E+01 -.207E-02 0.448E+03   -.918E+01 0.293E-02 -.449E+03   0.100E+01 0.332E-02 0.173E+00   -.996E-01 -.136E-04 0.128E+01
 -----------------------------------------------------------------------------------------------
   -.272E+02 -.152E+00 0.125E+04   0.959E-13 0.344E-12 -.676E-11   0.197E+02 0.245E+00 0.982E+01   0.709E+01 -.100E+00 -.127E+04
 
 
 POSITION                                       TOTAL-FORCE (eV/Angst)
 -----------------------------------------------------------------------------------
      0.34835      0.75409     62.13740        -0.082213     -0.001100     -0.175179
      0.36659      0.74372     52.81991         0.104395      0.004010      0.100990
      4.48609      2.17539     21.45325        -0.501570     -0.031694     -0.564129
      0.13697      0.73770     43.37396         0.137302     -0.000849      0.082593
      4.40687      2.15676     30.99320        -0.114356      0.007624     -0.241018
      0.02755      0.72270     33.56006         0.039109      0.001044      0.342239
      4.46551      2.16905     40.53220         0.547700     -0.005124     -0.328592
      0.00881      0.73929     24.00349         0.196722     -0.001830      0.649205
      4.35979      2.17533     50.32958         0.057182      0.000427      0.066056
      4.35106      2.18587     59.63687        -0.013047     -0.001931      0.166114
      2.13951      0.75443     66.84080         0.123990     -0.000578     -0.254672
      2.08073      0.74985     57.47082        -0.048182      0.000568      0.184323
      2.08713      0.74082     48.15641        -0.074574      0.001388      0.091343
      2.28398      2.16521     26.21194         0.020538      0.005515     -0.425449
      2.22016      0.72964     38.33570        -0.003798      0.006461      0.335964
      2.30704      2.15737     35.76246        -0.170653      0.005119      0.511044
      2.14937      0.72916     28.78540         0.097354     -0.002866     -0.404937
      2.43159      2.17284     45.63589        -0.017033      0.002958      0.022294
      2.63142      2.17995     54.97983        -0.041463      0.002028      0.235178
      2.61529      2.18751     64.31907         0.074064      0.000346     -0.139220
      4.40824      2.18661     69.04071        -0.068271      0.000471     -0.017649
      4.41820      2.18520     73.46542         0.029323      0.001132     -0.137719
      4.42591      2.18588     77.89615         0.040110      0.000390      0.205767
      4.42702      2.18726     82.33794        -0.057589      0.000443     -0.098489
      4.44473      2.18850     86.78435        -0.071179     -0.000485     -0.174346
      2.14347      0.75272     71.25160        -0.015678      0.000972     -0.072544
      2.15422      0.75230     75.68014        -0.042843      0.000945      0.009717
      2.15938      0.75354     80.11496        -0.020703      0.000305      0.070020
      2.14537      0.75498     84.56040         0.160567      0.000173     -0.216709
      2.03496      0.75549     89.00231         0.076804      0.000670     -0.067331
      1.81862      0.75444     63.37052         0.083269     -0.000260      0.097594
      1.86989      0.74625     54.00368        -0.078492      0.000393     -0.016293
      3.59656      2.16677     19.76981         0.406157     -0.043836      0.181675
      1.49287      0.73982     44.80161         0.096270     -0.006652     -0.025272
      3.14367      2.16137     29.56046         0.197633     -0.004839      0.237703
      1.29210      0.72370     35.04297        -0.092642      0.008598     -0.221117
      3.27041      2.16411     39.03645        -0.483688     -0.003159     -0.128405
      1.26307      0.73320     25.49484         0.176976      0.002377      0.248503
      2.89691      2.17400     49.08486         0.011111      0.000159     -0.093292
      2.85328      2.18341     58.43300        -0.012861     -0.001638     -0.047892
      2.95485      2.18732     67.76609         0.037058     -0.000585      0.073249
      0.64784      0.75375     68.05328        -0.067088     -0.001195      0.104946
      0.58573      0.75236     58.66638         0.054196     -0.000333      0.037437
      0.62100      0.74200     49.38479         0.075006      0.001580     -0.030041
      3.53548      2.17144     24.75806        -0.173367     -0.005411      0.211126
      0.99451      0.73512     39.86225         0.127942     -0.006986     -0.346263
      3.56089      2.15575     34.32681         0.248543      0.005074     -0.202868
      0.88015      0.72443     30.26338        -0.168761      0.003794      0.186846
      3.58847      2.17114     44.04842        -0.173291      0.001643     -0.064529
      0.80896      0.74352     20.53772         0.476333      0.016804     -1.284634
      4.13420      2.17714     53.78612         0.043554      0.002481     -0.099069
      4.08489      2.18722     63.08087        -0.009091     -0.001126      0.158899
      3.39081      0.75453     65.35454        -0.058510      0.000044      0.143660
      3.37769      0.74744     56.03386         0.052728     -0.002285     -0.026911
      3.28726      0.74007     46.61252        -0.070617     -0.003430     -0.046504
      1.24293      2.16254     27.88233        -0.029224     -0.001661      0.186718
      3.22611      0.72530     36.67903        -0.168018      0.007616     -0.309838
      1.29210      2.16139     37.45350         0.018673     -0.009935     -0.437337
      3.19076      0.73124     27.14676         0.001881      0.006861      0.167697
      1.26835      2.17361     47.16123         0.039102      0.001552      0.022683
      1.33398      2.18231     56.40973         0.030069     -0.000524     -0.032051
      1.36505      2.18751     65.79654         0.006112     -0.000398      0.157654
      3.59796      0.75316     60.68631         0.066287     -0.002705     -0.023968
      3.60388      0.74255     51.37687        -0.031067      0.001033     -0.038576
      0.94473      2.17280     23.11564         0.194556      0.003780      0.235920
      3.49072      0.73650     41.38147        -0.254033      0.000625      0.315468
      0.93054      2.15565     32.65516        -0.257797      0.002676      0.095806
      3.50734      0.72325     31.93329         0.250918      0.005220     -0.114737
      0.87922      2.17054     42.29018         0.187215     -0.002691      0.551880
      3.52070      0.74104     22.33893        -1.082818      0.015755      0.399014
      1.11546      2.17640     51.76377         0.039645      0.002380     -0.059894
      1.10404      2.18697     61.08304        -0.066458     -0.001348     -0.014028
      2.91621      2.18560     72.23336        -0.017315      0.001407      0.045551
      2.92799      2.18538     76.66189        -0.027404      0.000562     -0.002206
      2.92936      2.18664     81.10028        -0.009023      0.003314      0.051692
      2.90011      2.18807     85.56286         0.108830      0.000142      0.110640
      2.65832      2.18853     90.03583        -0.278266     -0.000356     -0.218432
      3.64063      0.75343     70.02023        -0.003434      0.000023     -0.002021
      3.65062      0.75216     74.44803        -0.009911     -0.000579      0.019899
      3.66111      0.75293     78.88421         0.023960      0.001822     -0.040118
      3.65897      0.75436     83.32645        -0.058567      0.001943      0.031001
      3.73734      0.75548     87.85234         0.085725     -0.000323     -0.162680
      0.64934      0.75226     72.47561         0.020227      0.001881      0.027031
      0.65845      0.75275     76.90699         0.027075      0.000681     -0.048545
      0.65827      0.75411     81.34258        -0.011445     -0.001794      0.054931
      0.59648      0.75535     85.72544        -0.015858      0.000025      0.302627
      0.44060      0.75509     89.86137         0.119493      0.000723      0.077471
      1.38039      2.18585     70.25766         0.032836      0.000688     -0.004658
      1.38594      2.18520     74.69145         0.029716      0.003002     -0.021108
      1.39855      2.18639     79.11911        -0.009993     -0.002448     -0.055642
      1.40468      2.18787     83.55020         0.028849     -0.000711      0.098703
      1.47280      2.18850     87.84243        -0.173410     -0.000231      0.070175
      2.62917      2.16824     42.32015         0.132492      0.004248     -0.240134
 -----------------------------------------------------------------------------------
    total drift:                               -0.432974     -0.007594     -0.371544


--------------------------------------------------------------------------------------------------------



  FREE ENERGIE OF THE ION-ELECTRON SYSTEM (eV)
  ---------------------------------------------------
  free  energy   TOTEN  =      -639.57257379 eV

  energy  without entropy=     -639.57257379  energy(sigma->0) =     -639.57257379
 


--------------------------------------------------------------------------------------------------------


    POTLOK:  cpu time    0.09: real time    0.09


--------------------------------------------------------------------------------------------------------


     LOOP+:  cpu time 1290.78: real time 1299.11
    4ORBIT:  cpu time    0.00: real time    0.00
 BZINTS: Fermi energy:  0.634278;583.000000 electrons
         Band energy:***********;  BLOECHL correction: -0.088672

 total amount of memory used by VASP on root node    77474. kBytes
========================================================================

   base      :      30000. kBytes
   nonl-proj :      12812. kBytes
   fftplans  :       1804. kBytes
   grid      :       4619. kBytes
   one-center:        497. kBytes
   wavefun   :      27742. kBytes
 
  
  
 General timing and accounting informations for this job:
 ========================================================
  
                  Total CPU time used (sec):     1297.836
                            User time (sec):     1294.801
                          System time (sec):        3.035
                         Elapsed time (sec):     1307.343
  
                   Maximum memory used (kb):      203192.
                   Average memory used (kb):           0.
  
                          Minor page faults:        66578
                          Major page faults:            0
                 Voluntary context switches:        91409
