 vasp.5.3.3 18Dez12 (build May 12 2016 12:04:25) complex                        
  
 executed on             LinuxIFC date 2019.05.18  12:52:33
 running on   32 total cores
 distrk:  each k-point on   32 cores,    1 groups
 distr:  one band on NCORES_PER_BAND=   4 cores,    8 groups


--------------------------------------------------------------------------------------------------------


 INCAR:
 POTCAR:    PAW_PBE Mn 06Sep2000                  
 POTCAR:    PAW_PBE O 08Apr2002                   
 POTCAR:    PAW_PBE Mn 06Sep2000                  
  local pseudopotential read in
  partial core-charges read in
  partial kinetic energy density read in
  atomic valenz-charges read in
  non local Contribution for L=           2  read in
    real space projection operators read in
  non local Contribution for L=           2  read in
    real space projection operators read in
  non local Contribution for L=           0  read in
    real space projection operators read in
  non local Contribution for L=           0  read in
    real space projection operators read in
  non local Contribution for L=           1  read in
    real space projection operators read in
  non local Contribution for L=           1  read in
    real space projection operators read in
    PAW grid and wavefunctions read in
 
   number of l-projection  operators is LMAX  =           6
   number of lm-projection operators is LMMAX =          18
 
 POTCAR:    PAW_PBE O 08Apr2002                   
  local pseudopotential read in
  partial core-charges read in
  partial kinetic energy density read in
  kinetic energy density of atom read in
  atomic valenz-charges read in
  non local Contribution for L=           0  read in
    real space projection operators read in
  non local Contribution for L=           0  read in
    real space projection operators read in
  non local Contribution for L=           1  read in
    real space projection operators read in
  non local Contribution for L=           1  read in
    real space projection operators read in
    PAW grid and wavefunctions read in
 
   number of l-projection  operators is LMAX  =           4
   number of lm-projection operators is LMMAX =           8
 

 ----------------------------------------------------------------------------- 
|                                                                             |
|  ADVICE TO THIS USER RUNNING 'VASP/VAMP'   (HEAR YOUR MASTER'S VOICE ...):  |
|                                                                             |
|      You enforced a specific xc-type in the INCAR file,                     |
|      a different type was found on the POTCAR file                          |
|          I HOPE YOU KNOW, WHAT YOU ARE  DOING                               |
|                                                                             |
 ----------------------------------------------------------------------------- 

  PAW_PBE Mn 06Sep2000                  :
 energy of atom  1       EATOM= -416.7541
 kinetic energy error for atom=    0.0024 (will be added to EATOM!!)
  PAW_PBE O 08Apr2002                   :
 energy of atom  2       EATOM= -432.3788
 kinetic energy error for atom=    0.0208 (will be added to EATOM!!)
 
 
 POSCAR: (Mn O2)4  (P1) ~ POSCAR_1 (VASP)        
  positions in direct lattice
  velocities in cartesian coordinates
  No initial velocities read in
 exchange correlation table for  LEXCH =       14
   RHO(1)=    0.500       N(1)  =     2000
   RHO(2)=  100.500       N(2)  =     4000
 


--------------------------------------------------------------------------------------------------------


 ion  position               nearest neighbor table
   1  0.000  0.000  0.000-  10 1.92   9 1.92   8 1.94   7 1.94   6 2.00   5 2.00   4 2.85   4 2.85
                             3 2.95   3 2.95   2 2.95   2 2.95
   2  0.000  0.500  0.000-  12 1.92  11 1.92   6 1.94   5 1.94   8 2.00   7 2.00   3 2.85   3 2.85
                             4 2.95   4 2.95   1 2.95   1 2.95
   3  0.500  0.000  0.000-   6 1.92   5 1.92  12 1.94  11 1.94  10 2.00   9 2.00   2 2.85   2 2.85
                             1 2.95   1 2.95   4 2.95   4 2.95
   4  0.500  0.500  0.000-   8 1.92   7 1.92  10 1.94   9 1.94  12 2.00  11 2.00   1 2.85   1 2.85
                             2 2.95   2 2.95   3 2.95   3 2.95
   5  0.194  0.813  0.140-   3 1.92   2 1.94   1 2.00
   6  0.806  0.187  0.860-   3 1.92   2 1.94   1 2.00
   7  0.194  0.313  0.140-   4 1.92   1 1.94   2 2.00
   8  0.806  0.687  0.860-   4 1.92   1 1.94   2 2.00
   9  0.694  0.813  0.140-   1 1.92   4 1.94   3 2.00
  10  0.306  0.187  0.860-   1 1.92   4 1.94   3 2.00
  11  0.694  0.313  0.140-   2 1.92   3 1.94   4 2.00
  12  0.306  0.687  0.860-   2 1.92   3 1.94   4 2.00
 
  LATTYP: Found a triclinic cell.
 ALAT       =    15.3805926721
 B/A-ratio  =     0.9828776718
 C/A-ratio  =     1.3104245900
 COS(alpha) =     0.0034550046
 COS(beta)  =     0.5787308293
 COS(gamma) =     0.8162759626
  
  Lattice vectors:
  
 A1 = ( -14.5474819000,  -4.9933356900,   0.0000000000)
 A2 = ( -13.3037208000,   0.7493140300,   7.1400644500)
 A3 = (  -8.3901220100, -11.4852994400, -14.2801289000)


Analysis of symmetry for initial positions (statically):
=====================================================================
 Subroutine PRICEL returns following result:
 
  LATTYP: Found a triclinic cell.
 ALAT       =     2.9512999050
 B/A-ratio  =     1.0011520647
 C/A-ratio  =     2.6737552581
 COS(alpha) =     0.0073752884
 COS(beta)  =     0.3636602222
 COS(gamma) =     0.5347949939
  
  Lattice vectors:
  
 A1 = (   2.9512999050,   0.0000000000,   0.0000000000)
 A2 = (   1.5801587650,  -2.4966678450,   0.0000000000)
 A3 = (   2.8696623200,   1.7473538150,  -7.1400644500)
 
   4 primitive cells build up your supercell.
 

 Routine SETGRP: Setting up the symmetry group for a 
 triclinic supercell.


 Subroutine GETGRP returns: Found  2 space group operations
 (whereof  2 operations were pure point group operations)
 out of a pool of  2 trial point group operations.


The static configuration has the point symmetry S_2 .


Analysis of symmetry for dynamics (positions and initial velocities):
=====================================================================
 Subroutine PRICEL returns following result:
 
  LATTYP: Found a triclinic cell.
 ALAT       =     2.9512999050
 B/A-ratio  =     1.0011520647
 C/A-ratio  =     2.6737552581
 COS(alpha) =     0.0073752884
 COS(beta)  =     0.3636602222
 COS(gamma) =     0.5347949939
  
  Lattice vectors:
  
 A1 = (   2.9512999050,   0.0000000000,   0.0000000000)
 A2 = (   1.5801587650,  -2.4966678450,   0.0000000000)
 A3 = (   2.8696623200,   1.7473538150,  -7.1400644500)
 
   4 primitive cells build up your supercell.
 

 Routine SETGRP: Setting up the symmetry group for a 
 triclinic supercell.


 Subroutine GETGRP returns: Found  2 space group operations
 (whereof  2 operations were pure point group operations)
 out of a pool of  2 trial point group operations.


The dynamic configuration has the point symmetry S_2 .


Analysis of magnetic symmetry:
=====================================================================

 Subroutine MAGSYM returns: Found  2 space group operations
 (whereof  2 operations were pure point group operations)
 out of a pool of  2 trial space group operations
 (whereof  2 operations were pure point group operations)
 and found also     4 'primitive' translations


The magnetic configuration has the point symmetry S_2 .


 irot  :   1
 --------------------------------------------------------------------
 isymop:   1   0   0
           0   1   0
           0   0   1

 gtrans:     0.0000000     0.0000000     0.0000000

 ptrans:     0.0000000     0.0000000     0.0000000
 rotmap:
 (   1->   1)  (   2->   2)  (   3->   3)  (   4->   4)  (   5->   5) 
 (   6->   6)  (   7->   7)  (   8->   8)  (   9->   9)  (  10->  10) 
 (  11->  11)  (  12->  12) 

 ptrans:     0.5000000     0.0000000     0.0000000
 rotmap:
 (   1->   3)  (   2->   4)  (   3->   1)  (   4->   2)  (   5->   9) 
 (   6->  10)  (   7->  11)  (   8->  12)  (   9->   5)  (  10->   6) 
 (  11->   7)  (  12->   8) 

 ptrans:     0.0000000     0.5000000     0.0000000
 rotmap:
 (   1->   2)  (   2->   1)  (   3->   4)  (   4->   3)  (   5->   7) 
 (   6->   8)  (   7->   5)  (   8->   6)  (   9->  11)  (  10->  12) 
 (  11->   9)  (  12->  10) 

 ptrans:     0.5000000     0.5000000     0.0000000
 rotmap:
 (   1->   4)  (   2->   3)  (   3->   2)  (   4->   1)  (   5->  11) 
 (   6->  12)  (   7->   9)  (   8->  10)  (   9->   7)  (  10->   8) 
 (  11->   5)  (  12->   6) 


 irot  :   2
 --------------------------------------------------------------------
 isymop:  -1   0   0
           0  -1   0
           0   0  -1

 gtrans:     0.0000000     0.0000000     0.0000000

 ptrans:     0.0000000     0.0000000     0.0000000
 rotmap:
 (   1->   1)  (   2->   2)  (   3->   3)  (   4->   4)  (   5->   6) 
 (   6->   5)  (   7->   8)  (   8->   7)  (   9->  10)  (  10->   9) 
 (  11->  12)  (  12->  11) 

 ptrans:     0.5000000     0.0000000     0.0000000
 rotmap:
 (   1->   3)  (   2->   4)  (   3->   1)  (   4->   2)  (   5->  10) 
 (   6->   9)  (   7->  12)  (   8->  11)  (   9->   6)  (  10->   5) 
 (  11->   8)  (  12->   7) 

 ptrans:     0.0000000     0.5000000     0.0000000
 rotmap:
 (   1->   2)  (   2->   1)  (   3->   4)  (   4->   3)  (   5->   8) 
 (   6->   7)  (   7->   6)  (   8->   5)  (   9->  12)  (  10->  11) 
 (  11->  10)  (  12->   9) 

 ptrans:     0.5000000     0.5000000     0.0000000
 rotmap:
 (   1->   4)  (   2->   3)  (   3->   2)  (   4->   1)  (   5->  12) 
 (   6->  11)  (   7->  10)  (   8->   9)  (   9->   8)  (  10->   7) 
 (  11->   6)  (  12->   5) 
 
 
 KPOINTS: Automatic mesh                          

Automatic generation of k-mesh.
Space group operators:
 irot       det(A)        alpha          n_x          n_y          n_z        tau_x        tau_y        tau_z
    1     1.000000     0.000000     1.000000     0.000000     0.000000     0.000000     0.000000     0.000000
    2    -1.000000     0.000000     1.000000     0.000000     0.000000     0.000000     0.000000     0.000000
 
 Subroutine IBZKPT returns following result:
 ===========================================
 
 Found     76 irreducible k-points:
 
 Following reciprocal coordinates:
            Coordinates               Weight
  0.000000  0.000000  0.000000      1.000000
  0.166667  0.000000 -0.000000      2.000000
  0.333333  0.000000  0.000000      2.000000
  0.500000  0.000000 -0.000000      1.000000
  0.000000  0.166667  0.000000      2.000000
  0.166667  0.166667 -0.000000      2.000000
  0.333333  0.166667 -0.000000      2.000000
  0.500000  0.166667 -0.000000      2.000000
 -0.333333  0.166667  0.000000      2.000000
 -0.166667  0.166667  0.000000      2.000000
  0.000000  0.333333 -0.000000      2.000000
  0.166667  0.333333 -0.000000      2.000000
  0.333333  0.333333 -0.000000      2.000000
  0.500000  0.333333 -0.000000      2.000000
 -0.333333  0.333333 -0.000000      2.000000
 -0.166667  0.333333 -0.000000      2.000000
  0.000000  0.500000 -0.000000      1.000000
  0.166667  0.500000 -0.000000      2.000000
  0.333333  0.500000 -0.000000      2.000000
  0.500000  0.500000 -0.000000      1.000000
  0.000000  0.000000  0.250000      2.000000
  0.166667  0.000000  0.250000      2.000000
  0.333333  0.000000  0.250000      2.000000
  0.500000  0.000000  0.250000      2.000000
 -0.333333 -0.000000  0.250000      2.000000
 -0.166667 -0.000000  0.250000      2.000000
  0.000000  0.166667  0.250000      2.000000
  0.166667  0.166667  0.250000      2.000000
  0.333333  0.166667  0.250000      2.000000
  0.500000  0.166667  0.250000      2.000000
 -0.333333  0.166667  0.250000      2.000000
 -0.166667  0.166667  0.250000      2.000000
  0.000000  0.333333  0.250000      2.000000
  0.166667  0.333333  0.250000      2.000000
  0.333333  0.333333  0.250000      2.000000
  0.500000  0.333333  0.250000      2.000000
 -0.333333  0.333333  0.250000      2.000000
 -0.166667  0.333333  0.250000      2.000000
  0.000000  0.500000  0.250000      2.000000
  0.166667  0.500000  0.250000      2.000000
  0.333333  0.500000  0.250000      2.000000
  0.500000  0.500000  0.250000      2.000000
 -0.333333  0.500000  0.250000      2.000000
 -0.166667  0.500000  0.250000      2.000000
  0.000000 -0.333333  0.250000      2.000000
  0.166667 -0.333333  0.250000      2.000000
  0.333333 -0.333333  0.250000      2.000000
  0.500000 -0.333333  0.250000      2.000000
 -0.333333 -0.333333  0.250000      2.000000
 -0.166667 -0.333333  0.250000      2.000000
  0.000000 -0.166667  0.250000      2.000000
  0.166667 -0.166667  0.250000      2.000000
  0.333333 -0.166667  0.250000      2.000000
  0.500000 -0.166667  0.250000      2.000000
 -0.333333 -0.166667  0.250000      2.000000
 -0.166667 -0.166667  0.250000      2.000000
  0.000000  0.000000  0.500000      1.000000
  0.166667  0.000000  0.500000      2.000000
  0.333333  0.000000  0.500000      2.000000
  0.500000  0.000000  0.500000      1.000000
  0.000000  0.166667  0.500000      2.000000
  0.166667  0.166667  0.500000      2.000000
  0.333333  0.166667  0.500000      2.000000
  0.500000  0.166667  0.500000      2.000000
 -0.333333  0.166667  0.500000      2.000000
 -0.166667  0.166667  0.500000      2.000000
  0.000000  0.333333  0.500000      2.000000
  0.166667  0.333333  0.500000      2.000000
  0.333333  0.333333  0.500000      2.000000
  0.500000  0.333333  0.500000      2.000000
 -0.333333  0.333333  0.500000      2.000000
 -0.166667  0.333333  0.500000      2.000000
  0.000000  0.500000  0.500000      1.000000
  0.166667  0.500000  0.500000      2.000000
  0.333333  0.500000  0.500000      2.000000
  0.500000  0.500000  0.500000      1.000000
 
 Following cartesian coordinates:
            Coordinates               Weight
  0.000000  0.000000  0.000000      1.000000
  0.028236  0.017871  0.004051      2.000000
  0.056472  0.035742  0.008101      2.000000
  0.084708  0.053613  0.012152      1.000000
  0.000000  0.033378 -0.003503      2.000000
  0.028236  0.051249  0.000548      2.000000
  0.056472  0.069120  0.004598      2.000000
  0.084708  0.086990  0.008649      2.000000
 -0.056472 -0.002364 -0.011604      2.000000
 -0.028236  0.015507 -0.007553      2.000000
  0.000000  0.066756 -0.007006      2.000000
  0.028236  0.084626 -0.002955      2.000000
  0.056472  0.102497  0.001096      2.000000
  0.084708  0.120368  0.005146      2.000000
 -0.056472  0.031014 -0.015107      2.000000
 -0.028236  0.048885 -0.011056      2.000000
  0.000000  0.100133 -0.010509      1.000000
  0.028236  0.118004 -0.006458      2.000000
  0.056472  0.135875 -0.002407      2.000000
  0.084708  0.153746  0.001643      1.000000
  0.000000  0.000000  0.035014      2.000000
  0.028236  0.017871  0.039064      2.000000
  0.056472  0.035742  0.043115      2.000000
  0.084708  0.053613  0.047166      2.000000
 -0.056472 -0.035742  0.026912      2.000000
 -0.028236 -0.017871  0.030963      2.000000
  0.000000  0.033378  0.031511      2.000000
  0.028236  0.051249  0.035561      2.000000
  0.056472  0.069120  0.039612      2.000000
  0.084708  0.086990  0.043663      2.000000
 -0.056472 -0.002364  0.023410      2.000000
 -0.028236  0.015507  0.027460      2.000000
  0.000000  0.066756  0.028008      2.000000
  0.028236  0.084626  0.032059      2.000000
  0.056472  0.102497  0.036109      2.000000
  0.084708  0.120368  0.040160      2.000000
 -0.056472  0.031014  0.019907      2.000000
 -0.028236  0.048885  0.023957      2.000000
  0.000000  0.100133  0.024505      2.000000
  0.028236  0.118004  0.028556      2.000000
  0.056472  0.135875  0.032606      2.000000
  0.084708  0.153746  0.036657      2.000000
 -0.056472  0.064392  0.016404      2.000000
 -0.028236  0.082263  0.020455      2.000000
  0.000000 -0.066756  0.042019      2.000000
  0.028236 -0.048885  0.046070      2.000000
  0.056472 -0.031014  0.050121      2.000000
  0.084708 -0.013143  0.054171      2.000000
 -0.056472 -0.102497  0.033918      2.000000
 -0.028236 -0.084626  0.037969      2.000000
  0.000000 -0.033378  0.038517      2.000000
  0.028236 -0.015507  0.042567      2.000000
  0.056472  0.002364  0.046618      2.000000
  0.084708  0.020235  0.050668      2.000000
 -0.056472 -0.069120  0.030415      2.000000
 -0.028236 -0.051249  0.034466      2.000000
  0.000000  0.000000  0.070027      1.000000
  0.028236  0.017871  0.074078      2.000000
  0.056472  0.035742  0.078129      2.000000
  0.084708  0.053613  0.082179      1.000000
  0.000000  0.033378  0.066525      2.000000
  0.028236  0.051249  0.070575      2.000000
  0.056472  0.069120  0.074626      2.000000
  0.084708  0.086990  0.078676      2.000000
 -0.056472 -0.002364  0.058423      2.000000
 -0.028236  0.015507  0.062474      2.000000
  0.000000  0.066756  0.063022      2.000000
  0.028236  0.084626  0.067072      2.000000
  0.056472  0.102497  0.071123      2.000000
  0.084708  0.120368  0.075174      2.000000
 -0.056472  0.031014  0.054920      2.000000
 -0.028236  0.048885  0.058971      2.000000
  0.000000  0.100133  0.059519      1.000000
  0.028236  0.118004  0.063569      2.000000
  0.056472  0.135875  0.067620      2.000000
  0.084708  0.153746  0.071671      1.000000
 


--------------------------------------------------------------------------------------------------------




 Dimension of arrays:
   k-points           NKPTS =     76   k-points in BZ     NKDIM =     76   number of bands    NBANDS=     48
   number of dos      NEDOS =    301   number of ions     NIONS =     12
   non local maximal  LDIM  =      6   non local SUM 2l+1 LMDIM =     18
   total plane-waves  NPLWV =  54432
   max r-space proj   IRMAX =      1   max aug-charges    IRDMAX=   9708
   dimension x,y,z NGX =    36 NGY =   36 NGZ =   42
   dimension x,y,z NGXF=    72 NGYF=   72 NGZF=   84
   support grid    NGXF=    72 NGYF=   72 NGZF=   84
   ions per type =               4   8
 NGX,Y,Z   is equivalent  to a cutoff of  10.14, 10.13,  9.52 a.u.
 NGXF,Y,Z  is equivalent  to a cutoff of  20.28, 20.26, 19.04 a.u.


 I would recommend the setting:
   dimension x,y,z NGX =    33 NGY =   33 NGZ =   41
 SYSTEM =  (Mn O2)4  (P1) ~ POSCAR_1 (VASP)        
 POSCAR =  (Mn O2)4  (P1) ~ POSCAR_1 (VASP)        

 Startparameter for this run:
   NWRITE =      1    write-flag & timer
   PREC   = normal    normal or accurate (medium, high low for compatibility)
   ISTART =      0    job   : 0-new  1-cont  2-samecut
   ICHARG =      2    charge: 1-file 2-atom 10-const
   ISPIN  =      2    spin polarized calculation?
   LNONCOLLINEAR =      F non collinear calculations
   LSORBIT =      F    spin-orbit coupling
   INIWAV =      1    electr: 0-lowe 1-rand  2-diag
   LASPH  =      F    aspherical Exc in radial PAW
   METAGGA=      F    non-selfconsistent MetaGGA calc.

 Electronic Relaxation 1
   ENCUT  =  520.0 eV  38.22 Ry    6.18 a.u.  10.97 10.99 13.64*2*pi/ulx,y,z
   ENINI  =  520.0     initial cutoff
   ENAUG  =  605.4 eV  augmentation charge cutoff
   NELM   =     60;   NELMIN=  2; NELMDL= -5     # of ELM steps 
   EDIFF  = 0.1E-03   stopping-criterion for ELM
   LREAL  =      F    real-space projection
   NLSPLINE    = F    spline interpolate recip. space projectors
   LCOMPAT=      F    compatible to vasp.4.4
   GGA_COMPAT  = T    GGA compatible to vasp.4.4-vasp.4.6
   LMAXPAW     = -100 max onsite density
   LMAXMIX     =    4 max onsite mixed and CHGCAR
   VOSKOWN=      1    Vosko Wilk Nusair interpolation
   ROPT   =    0.00000   0.00000
 Ionic relaxation
   EDIFFG = 0.1E-02   stopping-criterion for IOM
   NSW    =    100    number of steps for IOM
   NBLOCK =      1;   KBLOCK =    100    inner block; outer block 
   IBRION =      2    ionic relax: 0-MD 1-quasi-New 2-CG
   NFREE  =      1    steps in history (QN), initial steepest desc. (CG)
   ISIF   =      3    stress and relaxation
   IWAVPR =     11    prediction:  0-non 1-charg 2-wave 3-comb
   ISYM   =      2    0-nonsym 1-usesym 2-fastsym
   LCORR  =      T    Harris-Foulkes like correction to forces

   POTIM  = 0.5000    time-step for ionic-motion
   TEIN   =    0.0    initial temperature
   TEBEG  =    0.0;   TEEND  =   0.0 temperature during run
   SMASS  =  -3.00    Nose mass-parameter (am)
   estimated Nose-frequenzy (Omega)   =  0.10E-29 period in steps =****** mass=  -0.796E-27a.u.
   SCALEE = 1.0000    scale energy and forces
   NPACO  =    256;   APACO  = 16.0  distance and # of slots for P.C.
   PSTRESS=    0.0 pullay stress

  Mass of Ions in am
   POMASS =  54.94 16.00
  Ionic Valenz
   ZVAL   =   7.00  6.00
  Atomic Wigner-Seitz radii
   RWIGS  =  -1.00 -1.00
  virtual crystal weights 
   VCA    =   1.00  1.00
   NELECT =      76.0000    total number of electrons
   NUPDOWN=      -1.0000    fix difference up-down

 DOS related values:
   EMIN   =  10.00;   EMAX   =-10.00  energy-range for DOS
   EFERMI =   0.00
   ISMEAR =     1;   SIGMA  =   0.20  broadening in eV -4-tet -1-fermi 0-gaus

 Electronic relaxation 2 (details)
   IALGO  =     38    algorithm
   LDIAG  =      T    sub-space diagonalisation (order eigenvalues)
   LSUBROT=      T    optimize rotation matrix (better conditioning)
   TURBO    =      0    0=normal 1=particle mesh
   IRESTART =      0    0=no restart 2=restart with 2 vectors
   NREBOOT  =      0    no. of reboots
   NMIN     =      0    reboot dimension
   EREF     =   0.00    reference energy to select bands
   IMIX   =      4    mixing-type and parameters
     AMIX     =   0.40;   BMIX     =  1.00
     AMIX_MAG =   1.60;   BMIX_MAG =  1.00
     AMIN     =   0.10
     WC   =   100.;   INIMIX=   1;  MIXPRE=   1;  MAXMIX= -45

 Intra band minimization:
   WEIMIN = 0.0010     energy-eigenvalue tresh-hold
   EBREAK =  0.52E-06  absolut break condition
   DEPER  =   0.30     relativ break condition  

   TIME   =   0.40     timestep for ELM

  volume/ion in A,a.u.               =      17.54       118.35
  Fermi-wavevector in a.u.,A,eV,Ry     =   1.165827  2.203093 18.492380  1.359152
  Thomas-Fermi vector in A             =   2.302347
 
 Write flags
   LWAVE  =      F    write WAVECAR
   LCHARG =      T    write CHGCAR
   LVTOT  =      F    write LOCPOT, total local potential
   LVHAR  =      F    write LOCPOT, Hartree potential only
   LELF   =      F    write electronic localiz. function (ELF)
   LORBIT =      0    0 simple, 1 ext, 2 COOP (PROOUT)


 Dipole corrections
   LMONO  =      F    monopole corrections only (constant potential shift)
   LDIPOL =      F    correct potential (dipole corrections)
   IDIPOL =      0    1-x, 2-y, 3-z, 4-all directions 
   EPSILON=  1.0000000 bulk dielectric constant

 LDA+U is selected, type is set to LDAUTYPE =  2
   angular momentum for each species LDAUL =     2   -1
   U (eV)           for each species LDAUU =   3.9  0.0
   J (eV)           for each species LDAUJ =   0.0  0.0
 Exchange correlation treatment:
   GGA     =    PS    GGA type
   LEXCH   =    14    internal setting for exchange type
   VOSKOWN=      1    Vosko Wilk Nusair interpolation
   LHFCALC =     F    Hartree Fock is set to
   LHFONE  =     F    Hartree Fock one center treatment
   AEXX    =    0.0000 exact exchange contribution

 Linear response parameters
   LEPSILON=     F    determine dielectric tensor
   LRPA    =     F    only Hartree local field effects (RPA)
   LNABLA  =     F    use nabla operator in PAW spheres
   LVEL    =     F    velocity operator in full k-point grid
   LINTERFAST=   F  fast interpolation
   KINTER  =     0    interpolate to denser k-point grid
   CSHIFT  =0.1000    complex shift for real part using Kramers Kronig
   OMEGAMAX=  -1.0    maximum frequency
   DEG_THRESHOLD= 0.2000000E-02 threshold for treating states as degnerate
   RTIME   =    0.100 relaxation time in fs

 Orbital magnetization related:
   ORBITALMAG=     F  switch on orbital magnetization
   LCHIMAG   =     F  perturbation theory with respect to B field
   DQ        =  0.001000  dq finite difference perturbation B field



--------------------------------------------------------------------------------------------------------


 conjugate gradient relaxation of ions
 charge density and potential will be updated during run
 spin polarized calculation
 Variant of blocked Davidson
 Davidson routine will perform the subspace rotation
 perform sub-space diagonalisation
    after iterative eigenvector-optimisation
 modified Broyden-mixing scheme, WC =      100.0
 initial mixing is a Kerker type mixing with AMIX =  0.4000 and BMIX =      1.0000
 Hartree-type preconditioning will be used
 using additional bands           10
 reciprocal scheme for non local part
 use partial core corrections
 calculate Harris-corrections to forces 
   (improved forces if not selfconsistent)
 use gradient corrections 
 use of overlap-Matrix (Vanderbilt PP)
 Methfessel and Paxton  Order N= 1 SIGMA  =   0.20


--------------------------------------------------------------------------------------------------------


  energy-cutoff  :      520.00
  volume of cell :      210.44
      direct lattice vectors                 reciprocal lattice vectors
     5.902599810  0.000000000  0.000000000     0.169416873  0.107225139  0.024303628
    -3.160317530  4.993335690  0.000000000     0.000000000  0.200266928 -0.021017012
    -1.498521180  0.749314030  7.140064450     0.000000000  0.000000000  0.140054758

  length of vectors
     5.902599810  5.909399987  7.334000109     0.201965278  0.201366723  0.140054758


 
 k-points in units of 2pi/SCALE and weight: Automatic mesh                          
   0.00000000  0.00000000  0.00000000       0.007
   0.02823615  0.01787086  0.00405060       0.014
   0.05647229  0.03574171  0.00810121       0.014
   0.08470844  0.05361257  0.01215181       0.007
   0.00000000  0.03337782 -0.00350284       0.014
   0.02823615  0.05124868  0.00054777       0.014
   0.05647229  0.06911953  0.00459837       0.014
   0.08470844  0.08699039  0.00864898       0.014
  -0.05647229 -0.00236389 -0.01160404       0.014
  -0.02823615  0.01550696 -0.00755344       0.014
   0.00000000  0.06675564 -0.00700567       0.014
   0.02823615  0.08462650 -0.00295507       0.014
   0.05647229  0.10249736  0.00109554       0.014
   0.08470844  0.12036821  0.00514614       0.014
  -0.05647229  0.03101393 -0.01510688       0.014
  -0.02823615  0.04888479 -0.01105628       0.014
   0.00000000  0.10013346 -0.01050851       0.007
   0.02823615  0.11800432 -0.00645790       0.014
   0.05647229  0.13587518 -0.00240730       0.014
   0.08470844  0.15374603  0.00164331       0.007
   0.00000000  0.00000000  0.03501369       0.014
   0.02823615  0.01787086  0.03906429       0.014
   0.05647229  0.03574171  0.04311490       0.014
   0.08470844  0.05361257  0.04716550       0.014
  -0.05647229 -0.03574171  0.02691248       0.014
  -0.02823615 -0.01787086  0.03096308       0.014
   0.00000000  0.03337782  0.03151085       0.014
   0.02823615  0.05124868  0.03556146       0.014
   0.05647229  0.06911953  0.03961206       0.014
   0.08470844  0.08699039  0.04366267       0.014
  -0.05647229 -0.00236389  0.02340964       0.014
  -0.02823615  0.01550696  0.02746025       0.014
   0.00000000  0.06675564  0.02800802       0.014
   0.02823615  0.08462650  0.03205862       0.014
   0.05647229  0.10249736  0.03610923       0.014
   0.08470844  0.12036821  0.04015983       0.014
  -0.05647229  0.03101393  0.01990681       0.014
  -0.02823615  0.04888479  0.02395741       0.014
   0.00000000  0.10013346  0.02450518       0.014
   0.02823615  0.11800432  0.02855579       0.014
   0.05647229  0.13587518  0.03260639       0.014
   0.08470844  0.15374603  0.03665700       0.014
  -0.05647229  0.06439175  0.01640397       0.014
  -0.02823615  0.08226261  0.02045458       0.014
   0.00000000 -0.06675564  0.04201936       0.014
   0.02823615 -0.04888479  0.04606996       0.014
   0.05647229 -0.03101393  0.05012057       0.014
   0.08470844 -0.01314307  0.05417117       0.014
  -0.05647229 -0.10249736  0.03391815       0.014
  -0.02823615 -0.08462650  0.03796876       0.014
   0.00000000 -0.03337782  0.03851652       0.014
   0.02823615 -0.01550696  0.04256713       0.014
   0.05647229  0.00236389  0.04661773       0.014
   0.08470844  0.02023475  0.05066834       0.014
  -0.05647229 -0.06911953  0.03041532       0.014
  -0.02823615 -0.05124868  0.03446592       0.014
   0.00000000  0.00000000  0.07002738       0.007
   0.02823615  0.01787086  0.07407798       0.014
   0.05647229  0.03574171  0.07812859       0.014
   0.08470844  0.05361257  0.08217919       0.007
   0.00000000  0.03337782  0.06652454       0.014
   0.02823615  0.05124868  0.07057515       0.014
   0.05647229  0.06911953  0.07462575       0.014
   0.08470844  0.08699039  0.07867636       0.014
  -0.05647229 -0.00236389  0.05842333       0.014
  -0.02823615  0.01550696  0.06247394       0.014
   0.00000000  0.06675564  0.06302171       0.014
   0.02823615  0.08462650  0.06707231       0.014
   0.05647229  0.10249736  0.07112292       0.014
   0.08470844  0.12036821  0.07517352       0.014
  -0.05647229  0.03101393  0.05492050       0.014
  -0.02823615  0.04888479  0.05897110       0.014
   0.00000000  0.10013346  0.05951887       0.007
   0.02823615  0.11800432  0.06356948       0.014
   0.05647229  0.13587518  0.06762008       0.014
   0.08470844  0.15374603  0.07167069       0.007
 
 k-points in reciprocal lattice and weights: Automatic mesh                          
   0.00000000  0.00000000  0.00000000       0.007
   0.16666667  0.00000000 -0.00000000       0.014
   0.33333333  0.00000000  0.00000000       0.014
   0.50000000  0.00000000 -0.00000000       0.007
   0.00000000  0.16666667  0.00000000       0.014
   0.16666667  0.16666667 -0.00000000       0.014
   0.33333333  0.16666667 -0.00000000       0.014
   0.50000000  0.16666667 -0.00000000       0.014
  -0.33333333  0.16666667  0.00000000       0.014
  -0.16666667  0.16666667  0.00000000       0.014
   0.00000000  0.33333333 -0.00000000       0.014
   0.16666667  0.33333333 -0.00000000       0.014
   0.33333333  0.33333333 -0.00000000       0.014
   0.50000000  0.33333333 -0.00000000       0.014
  -0.33333333  0.33333333 -0.00000000       0.014
  -0.16666667  0.33333333 -0.00000000       0.014
   0.00000000  0.50000000 -0.00000000       0.007
   0.16666667  0.50000000 -0.00000000       0.014
   0.33333333  0.50000000 -0.00000000       0.014
   0.50000000  0.50000000 -0.00000000       0.007
   0.00000000  0.00000000  0.25000000       0.014
   0.16666667  0.00000000  0.25000000       0.014
   0.33333333  0.00000000  0.25000000       0.014
   0.50000000  0.00000000  0.25000000       0.014
  -0.33333333 -0.00000000  0.25000000       0.014
  -0.16666667 -0.00000000  0.25000000       0.014
   0.00000000  0.16666667  0.25000000       0.014
   0.16666667  0.16666667  0.25000000       0.014
   0.33333333  0.16666667  0.25000000       0.014
   0.50000000  0.16666667  0.25000000       0.014
  -0.33333333  0.16666667  0.25000000       0.014
  -0.16666667  0.16666667  0.25000000       0.014
   0.00000000  0.33333333  0.25000000       0.014
   0.16666667  0.33333333  0.25000000       0.014
   0.33333333  0.33333333  0.25000000       0.014
   0.50000000  0.33333333  0.25000000       0.014
  -0.33333333  0.33333333  0.25000000       0.014
  -0.16666667  0.33333333  0.25000000       0.014
   0.00000000  0.50000000  0.25000000       0.014
   0.16666667  0.50000000  0.25000000       0.014
   0.33333333  0.50000000  0.25000000       0.014
   0.50000000  0.50000000  0.25000000       0.014
  -0.33333333  0.50000000  0.25000000       0.014
  -0.16666667  0.50000000  0.25000000       0.014
   0.00000000 -0.33333333  0.25000000       0.014
   0.16666667 -0.33333333  0.25000000       0.014
   0.33333333 -0.33333333  0.25000000       0.014
   0.50000000 -0.33333333  0.25000000       0.014
  -0.33333333 -0.33333333  0.25000000       0.014
  -0.16666667 -0.33333333  0.25000000       0.014
   0.00000000 -0.16666667  0.25000000       0.014
   0.16666667 -0.16666667  0.25000000       0.014
   0.33333333 -0.16666667  0.25000000       0.014
   0.50000000 -0.16666667  0.25000000       0.014
  -0.33333333 -0.16666667  0.25000000       0.014
  -0.16666667 -0.16666667  0.25000000       0.014
   0.00000000  0.00000000  0.50000000       0.007
   0.16666667  0.00000000  0.50000000       0.014
   0.33333333  0.00000000  0.50000000       0.014
   0.50000000  0.00000000  0.50000000       0.007
   0.00000000  0.16666667  0.50000000       0.014
   0.16666667  0.16666667  0.50000000       0.014
   0.33333333  0.16666667  0.50000000       0.014
   0.50000000  0.16666667  0.50000000       0.014
  -0.33333333  0.16666667  0.50000000       0.014
  -0.16666667  0.16666667  0.50000000       0.014
   0.00000000  0.33333333  0.50000000       0.014
   0.16666667  0.33333333  0.50000000       0.014
   0.33333333  0.33333333  0.50000000       0.014
   0.50000000  0.33333333  0.50000000       0.014
  -0.33333333  0.33333333  0.50000000       0.014
  -0.16666667  0.33333333  0.50000000       0.014
   0.00000000  0.50000000  0.50000000       0.007
   0.16666667  0.50000000  0.50000000       0.014
   0.33333333  0.50000000  0.50000000       0.014
   0.50000000  0.50000000  0.50000000       0.007
 
 position of ions in fractional coordinates (direct lattice) 
   0.00000000  0.00000000  0.00000000
   0.00000000  0.50000000  0.00000000
   0.50000000  0.00000000  0.00000000
   0.50000000  0.50000000  0.00000000
   0.19430000  0.81335002  0.13959999
   0.80570000  0.18664998  0.86040002
   0.19430000  0.31334996  0.13959999
   0.80570000  0.68665004  0.86040002
   0.69430000  0.81335002  0.13959999
   0.30570000  0.18664998  0.86040002
   0.69430000  0.31334996  0.13959999
   0.30570000  0.68665004  0.86040002
 
 position of ions in cartesian coordinates  (Angst):
   0.00000000  0.00000000  0.00000000
  -1.58015876  2.49666785  0.00000000
   2.95129990  0.00000000  0.00000000
   1.37114114  2.49666785  0.00000000
  -1.63276272  4.16593391  0.99675293
   2.87652381  1.57671581  6.14331160
  -0.05260377  1.66926577  0.99675293
   1.29636486  4.07338396  6.14331160
   1.31853718  4.16593391  0.99675293
  -0.07477610  1.57671581  6.14331160
   2.89869613  1.66926577  0.99675293
  -1.65493505  4.07338396  6.14331160
 


--------------------------------------------------------------------------------------------------------


 k-point  1 :   0.0000 0.0000 0.0000  plane waves:    5663
 k-point  2 :   0.1667 0.0000-0.0000  plane waves:    5657
 k-point  3 :   0.3333 0.0000 0.0000  plane waves:    5653
 k-point  4 :   0.5000 0.0000-0.0000  plane waves:    5668
 k-point  5 :   0.0000 0.1667 0.0000  plane waves:    5663
 k-point  6 :   0.1667 0.1667-0.0000  plane waves:    5649
 k-point  7 :   0.3333 0.1667-0.0000  plane waves:    5661
 k-point  8 :   0.5000 0.1667-0.0000  plane waves:    5675
 k-point  9 :  -0.3333 0.1667 0.0000  plane waves:    5674
 k-point 10 :  -0.1667 0.1667 0.0000  plane waves:    5674
 k-point 11 :   0.0000 0.3333-0.0000  plane waves:    5655
 k-point 12 :   0.1667 0.3333-0.0000  plane waves:    5660
 k-point 13 :   0.3333 0.3333-0.0000  plane waves:    5660
 k-point 14 :   0.5000 0.3333-0.0000  plane waves:    5680
 k-point 15 :  -0.3333 0.3333-0.0000  plane waves:    5686
 k-point 16 :  -0.1667 0.3333-0.0000  plane waves:    5676
 k-point 17 :   0.0000 0.5000-0.0000  plane waves:    5654
 k-point 18 :   0.1667 0.5000-0.0000  plane waves:    5685
 k-point 19 :   0.3333 0.5000-0.0000  plane waves:    5686
 k-point 20 :   0.5000 0.5000-0.0000  plane waves:    5692
 k-point 21 :   0.0000 0.0000 0.2500  plane waves:    5657
 k-point 22 :   0.1667 0.0000 0.2500  plane waves:    5645
 k-point 23 :   0.3333 0.0000 0.2500  plane waves:    5659
 k-point 24 :   0.5000 0.0000 0.2500  plane waves:    5651
 k-point 25 :  -0.3333-0.0000 0.2500  plane waves:    5665
 k-point 26 :  -0.1667-0.0000 0.2500  plane waves:    5662
 k-point 27 :   0.0000 0.1667 0.2500  plane waves:    5669
 k-point 28 :   0.1667 0.1667 0.2500  plane waves:    5660
 k-point 29 :   0.3333 0.1667 0.2500  plane waves:    5669
 k-point 30 :   0.5000 0.1667 0.2500  plane waves:    5671
 k-point 31 :  -0.3333 0.1667 0.2500  plane waves:    5669
 k-point 32 :  -0.1667 0.1667 0.2500  plane waves:    5684
 k-point 33 :   0.0000 0.3333 0.2500  plane waves:    5656
 k-point 34 :   0.1667 0.3333 0.2500  plane waves:    5655
 k-point 35 :   0.3333 0.3333 0.2500  plane waves:    5671
 k-point 36 :   0.5000 0.3333 0.2500  plane waves:    5681
 k-point 37 :  -0.3333 0.3333 0.2500  plane waves:    5682
 k-point 38 :  -0.1667 0.3333 0.2500  plane waves:    5690
 k-point 39 :   0.0000 0.5000 0.2500  plane waves:    5650
 k-point 40 :   0.1667 0.5000 0.2500  plane waves:    5667
 k-point 41 :   0.3333 0.5000 0.2500  plane waves:    5670
 k-point 42 :   0.5000 0.5000 0.2500  plane waves:    5680
 k-point 43 :  -0.3333 0.5000 0.2500  plane waves:    5687
 k-point 44 :  -0.1667 0.5000 0.2500  plane waves:    5675
 k-point 45 :   0.0000-0.3333 0.2500  plane waves:    5648
 k-point 46 :   0.1667-0.3333 0.2500  plane waves:    5664
 k-point 47 :   0.3333-0.3333 0.2500  plane waves:    5675
 k-point 48 :   0.5000-0.3333 0.2500  plane waves:    5676
 k-point 49 :  -0.3333-0.3333 0.2500  plane waves:    5679
 k-point 50 :  -0.1667-0.3333 0.2500  plane waves:    5665
 k-point 51 :   0.0000-0.1667 0.2500  plane waves:    5655
 k-point 52 :   0.1667-0.1667 0.2500  plane waves:    5665
 k-point 53 :   0.3333-0.1667 0.2500  plane waves:    5676
 k-point 54 :   0.5000-0.1667 0.2500  plane waves:    5665
 k-point 55 :  -0.3333-0.1667 0.2500  plane waves:    5660
 k-point 56 :  -0.1667-0.1667 0.2500  plane waves:    5651
 k-point 57 :   0.0000 0.0000 0.5000  plane waves:    5668
 k-point 58 :   0.1667 0.0000 0.5000  plane waves:    5659
 k-point 59 :   0.3333 0.0000 0.5000  plane waves:    5649
 k-point 60 :   0.5000 0.0000 0.5000  plane waves:    5650
 k-point 61 :   0.0000 0.1667 0.5000  plane waves:    5659
 k-point 62 :   0.1667 0.1667 0.5000  plane waves:    5663
 k-point 63 :   0.3333 0.1667 0.5000  plane waves:    5667
 k-point 64 :   0.5000 0.1667 0.5000  plane waves:    5660
 k-point 65 :  -0.3333 0.1667 0.5000  plane waves:    5676
 k-point 66 :  -0.1667 0.1667 0.5000  plane waves:    5665
 k-point 67 :   0.0000 0.3333 0.5000  plane waves:    5646
 k-point 68 :   0.1667 0.3333 0.5000  plane waves:    5661
 k-point 69 :   0.3333 0.3333 0.5000  plane waves:    5670
 k-point 70 :   0.5000 0.3333 0.5000  plane waves:    5683
 k-point 71 :  -0.3333 0.3333 0.5000  plane waves:    5676
 k-point 72 :  -0.1667 0.3333 0.5000  plane waves:    5660
 k-point 73 :   0.0000 0.5000 0.5000  plane waves:    5652
 k-point 74 :   0.1667 0.5000 0.5000  plane waves:    5651
 k-point 75 :   0.3333 0.5000 0.5000  plane waves:    5674
 k-point 76 :   0.5000 0.5000 0.5000  plane waves:    5676

 maximum and minimum number of plane-waves per node :      1449     1393

 maximum number of plane-waves:      5692
 maximum index in each direction: 
   IXMAX=   11   IYMAX=   11   IZMAX=   13
   IXMIN=  -11   IYMIN=  -11   IZMIN=  -14

 WARNING: aliasing errors must be expected set NGX to  46 to avoid them
 WARNING: aliasing errors must be expected set NGY to  46 to avoid them
 WARNING: aliasing errors must be expected set NGZ to  56 to avoid them
 aliasing errors are usually negligible using standard VASP settings
 and one can safely disregard these warnings

 parallel 3D FFT for wavefunctions:
    minimum data exchange during FFTs selected (reduces bandwidth)
 parallel 3D FFT for charge:
    minimum data exchange during FFTs selected (reduces bandwidth)


 total amount of memory used by VASP on root node    86780. kBytes
========================================================================

   base      :      30000. kBytes
   nonl-proj :      31618. kBytes
   fftplans  :       1012. kBytes
   grid      :       2578. kBytes
   one-center:         93. kBytes
   wavefun   :      21479. kBytes
 
 Broyden mixing: mesh for mixing (old mesh)
   NGX = 21   NGY = 21   NGZ = 27
  (NGX  = 72   NGY  = 72   NGZ  = 84)
  gives a total of  11907 points

 initial charge density was supplied:
 charge density of overlapping atoms calculated
 number of electron      76.0000000 magnetization       0.0000000
 keeping initial charge density in first step


--------------------------------------------------------------------------------------------------------


 Maximum index for augmentation-charges          791 (set IRDMAX)


--------------------------------------------------------------------------------------------------------


 First call to EWALD:  gamma=   0.298
 Maximum number of real-space cells 3x 3x 2
 Maximum number of reciprocal cells 3x 3x 3

 FEWALD executed in parallel
    FEWALD:  cpu time    0.00: real time    0.00


----------------------------------------- Iteration    1(   1)  ---------------------------------------


    POTLOK:  cpu time    0.03: real time    0.03
    SETDIJ:  cpu time    0.01: real time    0.01
     EDDAV:  cpu time    5.15: real time    5.15
       DOS:  cpu time    0.00: real time    0.00
    --------------------------------------------
      LOOP:  cpu time    5.19: real time    5.24

 eigenvalue-minimisations  : 14592
 total energy-change (2. order) : 0.1105253E+04  (-0.3242709E+04)
 number of electron      76.0000000 magnetization      -0.0000000
 augmentation part       76.0000000 magnetization      -0.0000000

 Free energy of the ion-electron system (eV)
  ---------------------------------------------------
  alpha Z        PSCENC =       180.83915956
  Ewald energy   TEWEN  =      -935.11960250
  -1/2 Hartree   DENC   =     -4074.88344606
  -exchange  EXHF       =         0.00000000
  -V(xc)+E(xc)   XCENC  =       183.18695016
  PAW double counting   =      4385.75833043    -4310.80712112
  entropy T*S    EENTRO =         0.00367561
  eigenvalues    EBANDS =       565.70490480
  atomic energy  EATOM  =      5110.57042958
  ---------------------------------------------------
  free energy    TOTEN  =      1105.25328046 eV

  energy without entropy =     1105.24960486  energy(sigma->0) =     1105.25205526


--------------------------------------------------------------------------------------------------------




----------------------------------------- Iteration    1(   2)  ---------------------------------------


     EDDAV:  cpu time    5.18: real time    5.18
       DOS:  cpu time    0.00: real time    0.00
    --------------------------------------------
      LOOP:  cpu time    5.18: real time    5.29

 eigenvalue-minimisations  : 14656
 total energy-change (2. order) :-0.8985145E+03  (-0.8647488E+03)
 number of electron      76.0000000 magnetization      -0.0000000
 augmentation part       76.0000000 magnetization      -0.0000000

 Free energy of the ion-electron system (eV)
  ---------------------------------------------------
  alpha Z        PSCENC =       180.83915956
  Ewald energy   TEWEN  =      -935.11960250
  -1/2 Hartree   DENC   =     -4074.88344606
  -exchange  EXHF       =         0.00000000
  -V(xc)+E(xc)   XCENC  =       183.18695016
  PAW double counting   =      4385.75833043    -4310.80712112
  entropy T*S    EENTRO =        -0.00321205
  eigenvalues    EBANDS =      -332.80270076
  atomic energy  EATOM  =      5110.57042958
  ---------------------------------------------------
  free energy    TOTEN  =       206.73878724 eV

  energy without entropy =      206.74199929  energy(sigma->0) =      206.73985792


--------------------------------------------------------------------------------------------------------




----------------------------------------- Iteration    1(   3)  ---------------------------------------


     EDDAV:  cpu time    7.57: real time    7.58
       DOS:  cpu time    0.00: real time    0.00
    --------------------------------------------
      LOOP:  cpu time    7.58: real time    7.66

 eigenvalue-minimisations  : 24232
 total energy-change (2. order) :-0.2908711E+03  (-0.2768700E+03)
 number of electron      76.0000000 magnetization      -0.0000000
 augmentation part       76.0000000 magnetization      -0.0000000

 Free energy of the ion-electron system (eV)
  ---------------------------------------------------
  alpha Z        PSCENC =       180.83915956
  Ewald energy   TEWEN  =      -935.11960250
  -1/2 Hartree   DENC   =     -4074.88344606
  -exchange  EXHF       =         0.00000000
  -V(xc)+E(xc)   XCENC  =       183.18695016
  PAW double counting   =      4385.75833043    -4310.80712112
  entropy T*S    EENTRO =         0.00569069
  eigenvalues    EBANDS =      -623.68273683
  atomic energy  EATOM  =      5110.57042958
  ---------------------------------------------------
  free energy    TOTEN  =       -84.13234608 eV

  energy without entropy =      -84.13803677  energy(sigma->0) =      -84.13424298


--------------------------------------------------------------------------------------------------------




----------------------------------------- Iteration    1(   4)  ---------------------------------------


     EDDAV:  cpu time    7.25: real time    7.26
       DOS:  cpu time    0.00: real time    0.00
    --------------------------------------------
      LOOP:  cpu time    7.25: real time    7.46

 eigenvalue-minimisations  : 23112
 total energy-change (2. order) :-0.3122759E+02  (-0.3073742E+02)
 number of electron      76.0000000 magnetization      -0.0000000
 augmentation part       76.0000000 magnetization      -0.0000000

 Free energy of the ion-electron system (eV)
  ---------------------------------------------------
  alpha Z        PSCENC =       180.83915956
  Ewald energy   TEWEN  =      -935.11960250
  -1/2 Hartree   DENC   =     -4074.88344606
  -exchange  EXHF       =         0.00000000
  -V(xc)+E(xc)   XCENC  =       183.18695016
  PAW double counting   =      4385.75833043    -4310.80712112
  entropy T*S    EENTRO =         0.03339502
  eigenvalues    EBANDS =      -654.93802897
  atomic energy  EATOM  =      5110.57042958
  ---------------------------------------------------
  free energy    TOTEN  =      -115.35993389 eV

  energy without entropy =     -115.39332891  energy(sigma->0) =     -115.37106557


--------------------------------------------------------------------------------------------------------




----------------------------------------- Iteration    1(   5)  ---------------------------------------


     EDDAV:  cpu time    7.20: real time    7.21
       DOS:  cpu time    0.00: real time    0.01
    CHARGE:  cpu time    0.33: real time    0.33
    MIXING:  cpu time    0.00: real time    0.00
    --------------------------------------------
      LOOP:  cpu time    7.54: real time    7.62

 eigenvalue-minimisations  : 22952
 total energy-change (2. order) :-0.7966813E+00  (-0.7933247E+00)
 number of electron      75.9999935 magnetization      -0.0000000
 augmentation part       14.8768484 magnetization      -0.0000000

 Broyden mixing:
  rms(total) = 0.51206E+01    rms(broyden)= 0.51201E+01
  rms(prec ) = 0.70641E+01
  weight for this iteration     100.00

 Free energy of the ion-electron system (eV)
  ---------------------------------------------------
  alpha Z        PSCENC =       180.83915956
  Ewald energy   TEWEN  =      -935.11960250
  -1/2 Hartree   DENC   =     -4074.88344606
  -exchange  EXHF       =         0.00000000
  -V(xc)+E(xc)   XCENC  =       183.18695016
  PAW double counting   =      4385.75833043    -4310.80712112
  entropy T*S    EENTRO =         0.03370072
  eigenvalues    EBANDS =      -655.73501595
  atomic energy  EATOM  =      5110.57042958
  ---------------------------------------------------
  free energy    TOTEN  =      -116.15661518 eV

  energy without entropy =     -116.19031589  energy(sigma->0) =     -116.16784875


--------------------------------------------------------------------------------------------------------




----------------------------------------- Iteration    1(   6)  ---------------------------------------


    POTLOK:  cpu time    0.03: real time    0.03
    SETDIJ:  cpu time    0.01: real time    0.01
     EDDAV:  cpu time    7.53: real time    7.53
       DOS:  cpu time    0.00: real time    0.01
    CHARGE:  cpu time    0.33: real time    0.33
    MIXING:  cpu time    0.00: real time    0.00
    --------------------------------------------
      LOOP:  cpu time    7.90: real time    8.10

 eigenvalue-minimisations  : 24392
 total energy-change (2. order) : 0.1098520E+02  (-0.3796354E+02)
 number of electron      75.9999931 magnetization      -0.0000000
 augmentation part       22.3217283 magnetization      -0.0000000

 Broyden mixing:
  rms(total) = 0.78616E+01    rms(broyden)= 0.78611E+01
  rms(prec ) = 0.10080E+02
  weight for this iteration     100.00

 eigenvalues of (default mixing * dielectric matrix)
  average eigenvalue GAMMA=   0.1971
  0.1971

 Free energy of the ion-electron system (eV)
  ---------------------------------------------------
  alpha Z        PSCENC =       180.83915956
  Ewald energy   TEWEN  =      -935.11960250
  -1/2 Hartree   DENC   =     -4095.94151027
  -exchange  EXHF       =         0.00000000
  -V(xc)+E(xc)   XCENC  =       191.72109541
  PAW double counting   =      5061.70043584    -4973.67529931
  entropy T*S    EENTRO =         0.00199586
  eigenvalues    EBANDS =      -645.26811893
  atomic energy  EATOM  =      5110.57042958
  ---------------------------------------------------
  free energy    TOTEN  =      -105.17141475 eV

  energy without entropy =     -105.17341061  energy(sigma->0) =     -105.17208004


--------------------------------------------------------------------------------------------------------




----------------------------------------- Iteration    1(   7)  ---------------------------------------


    POTLOK:  cpu time    0.03: real time    0.03
    SETDIJ:  cpu time    0.01: real time    0.01
     EDDAV:  cpu time    8.24: real time    8.24
       DOS:  cpu time    0.00: real time    0.00
    CHARGE:  cpu time    0.33: real time    0.33
    MIXING:  cpu time    0.00: real time    0.00
    --------------------------------------------
      LOOP:  cpu time    8.61: real time    8.72

 eigenvalue-minimisations  : 26928
 total energy-change (2. order) : 0.1665897E+02  (-0.2124064E+02)
 number of electron      75.9999939 magnetization      -0.0000000
 augmentation part       16.1131575 magnetization      -0.0000000

 Broyden mixing:
  rms(total) = 0.22096E+01    rms(broyden)= 0.22092E+01
  rms(prec ) = 0.25672E+01
  weight for this iteration     100.00

 eigenvalues of (default mixing * dielectric matrix)
  average eigenvalue GAMMA=   0.5757
  0.8279  0.3234

 Free energy of the ion-electron system (eV)
  ---------------------------------------------------
  alpha Z        PSCENC =       180.83915956
  Ewald energy   TEWEN  =      -935.11960250
  -1/2 Hartree   DENC   =     -4097.41866118
  -exchange  EXHF       =         0.00000000
  -V(xc)+E(xc)   XCENC  =       186.20070866
  PAW double counting   =      5309.61765346    -5236.57187893
  entropy T*S    EENTRO =         0.01657599
  eigenvalues    EBANDS =      -606.64682623
  atomic energy  EATOM  =      5110.57042958
  ---------------------------------------------------
  free energy    TOTEN  =       -88.51244158 eV

  energy without entropy =      -88.52901757  energy(sigma->0) =      -88.51796691


--------------------------------------------------------------------------------------------------------




----------------------------------------- Iteration    1(   8)  ---------------------------------------


    POTLOK:  cpu time    0.03: real time    0.03
    SETDIJ:  cpu time    0.01: real time    0.01
     EDDAV:  cpu time    7.61: real time    7.61
       DOS:  cpu time    0.00: real time    0.00
    CHARGE:  cpu time    0.33: real time    0.33
    MIXING:  cpu time    0.00: real time    0.00
    --------------------------------------------
      LOOP:  cpu time    7.98: real time    8.06

 eigenvalue-minimisations  : 24496
 total energy-change (2. order) :-0.6122087E-02  (-0.1458074E+01)
 number of electron      75.9999938 magnetization      -0.0000000
 augmentation part       17.0278637 magnetization      -0.0000000

 Broyden mixing:
  rms(total) = 0.12157E+01    rms(broyden)= 0.12156E+01
  rms(prec ) = 0.13241E+01
  weight for this iteration     100.00

 eigenvalues of (default mixing * dielectric matrix)
  average eigenvalue GAMMA=   0.8082
  1.4346  0.3237  0.6663

 Free energy of the ion-electron system (eV)
  ---------------------------------------------------
  alpha Z        PSCENC =       180.83915956
  Ewald energy   TEWEN  =      -935.11960250
  -1/2 Hartree   DENC   =     -4071.34631007
  -exchange  EXHF       =         0.00000000
  -V(xc)+E(xc)   XCENC  =       187.45399694
  PAW double counting   =      5665.34480003    -5592.55105876
  entropy T*S    EENTRO =         0.03289176
  eigenvalues    EBANDS =      -633.74287020
  atomic energy  EATOM  =      5110.57042958
  ---------------------------------------------------
  free energy    TOTEN  =       -88.51856367 eV

  energy without entropy =      -88.55145542  energy(sigma->0) =      -88.52952759


--------------------------------------------------------------------------------------------------------




----------------------------------------- Iteration    1(   9)  ---------------------------------------


    POTLOK:  cpu time    0.03: real time    0.03
    SETDIJ:  cpu time    0.00: real time    0.01
     EDDAV:  cpu time    8.56: real time    8.56
       DOS:  cpu time    0.00: real time    0.01
    CHARGE:  cpu time    0.33: real time    0.33
    MIXING:  cpu time    0.00: real time    0.00
    --------------------------------------------
      LOOP:  cpu time    8.93: real time    9.00

 eigenvalue-minimisations  : 28216
 total energy-change (2. order) :-0.1881091E+00  (-0.2266481E+00)
 number of electron      75.9999937 magnetization       0.0000000
 augmentation part       17.6996241 magnetization       0.0000000

 Broyden mixing:
  rms(total) = 0.87986E+00    rms(broyden)= 0.87978E+00
  rms(prec ) = 0.10041E+01
  weight for this iteration     100.00

 eigenvalues of (default mixing * dielectric matrix)
  average eigenvalue GAMMA=   1.0162
  1.9630  1.1613  0.3389  0.6014

 Free energy of the ion-electron system (eV)
  ---------------------------------------------------
  alpha Z        PSCENC =       180.83915956
  Ewald energy   TEWEN  =      -935.11960250
  -1/2 Hartree   DENC   =     -4070.24585477
  -exchange  EXHF       =         0.00000000
  -V(xc)+E(xc)   XCENC  =       189.92066387
  PAW double counting   =      5955.59683973    -5884.35592766
  entropy T*S    EENTRO =         0.02234924
  eigenvalues    EBANDS =      -635.93472979
  atomic energy  EATOM  =      5110.57042958
  ---------------------------------------------------
  free energy    TOTEN  =       -88.70667274 eV

  energy without entropy =      -88.72902198  energy(sigma->0) =      -88.71412249


--------------------------------------------------------------------------------------------------------




----------------------------------------- Iteration    1(  10)  ---------------------------------------


    POTLOK:  cpu time    0.03: real time    0.03
    SETDIJ:  cpu time    0.01: real time    0.01
     EDDAV:  cpu time    7.69: real time    7.70
       DOS:  cpu time    0.01: real time    0.01
    CHARGE:  cpu time    0.33: real time    0.33
    MIXING:  cpu time    0.00: real time    0.00
    --------------------------------------------
      LOOP:  cpu time    8.07: real time    8.25

 eigenvalue-minimisations  : 24792
 total energy-change (2. order) : 0.1944312E+00  (-0.1698863E+00)
 number of electron      75.9999938 magnetization       0.0000000
 augmentation part       17.4043354 magnetization       0.0000000

 Broyden mixing:
  rms(total) = 0.33756E+00    rms(broyden)= 0.33751E+00
  rms(prec ) = 0.36703E+00
  weight for this iteration     100.00

 eigenvalues of (default mixing * dielectric matrix)
  average eigenvalue GAMMA=   0.9798
  2.1128  0.3381  0.7342  0.8569  0.8569

 Free energy of the ion-electron system (eV)
  ---------------------------------------------------
  alpha Z        PSCENC =       180.83915956
  Ewald energy   TEWEN  =      -935.11960250
  -1/2 Hartree   DENC   =     -4075.56144680
  -exchange  EXHF       =         0.00000000
  -V(xc)+E(xc)   XCENC  =       191.46017019
  PAW double counting   =      6146.08162049    -6077.25263795
  entropy T*S    EENTRO =         0.02102149
  eigenvalues    EBANDS =      -629.55095556
  atomic energy  EATOM  =      5110.57042958
  ---------------------------------------------------
  free energy    TOTEN  =       -88.51224150 eV

  energy without entropy =      -88.53326299  energy(sigma->0) =      -88.51924866


--------------------------------------------------------------------------------------------------------




----------------------------------------- Iteration    1(  11)  ---------------------------------------


    POTLOK:  cpu time    0.03: real time    0.03
    SETDIJ:  cpu time    0.01: real time    0.01
     EDDAV:  cpu time    7.50: real time    7.51
       DOS:  cpu time    0.00: real time    0.00
    CHARGE:  cpu time    0.33: real time    0.33
    MIXING:  cpu time    0.00: real time    0.00
    --------------------------------------------
      LOOP:  cpu time    7.87: real time    7.95

 eigenvalue-minimisations  : 24088
 total energy-change (2. order) :-0.4103552E-01  (-0.7680093E-02)
 number of electron      75.9999938 magnetization       0.0000000
 augmentation part       17.3648228 magnetization       0.0000000

 Broyden mixing:
  rms(total) = 0.12730E+00    rms(broyden)= 0.12730E+00
  rms(prec ) = 0.16594E+00
  weight for this iteration     100.00

 eigenvalues of (default mixing * dielectric matrix)
  average eigenvalue GAMMA=   1.0326
  2.0573  1.2836  1.2836  0.3387  0.6162  0.6162

 Free energy of the ion-electron system (eV)
  ---------------------------------------------------
  alpha Z        PSCENC =       180.83915956
  Ewald energy   TEWEN  =      -935.11960250
  -1/2 Hartree   DENC   =     -4076.51681050
  -exchange  EXHF       =         0.00000000
  -V(xc)+E(xc)   XCENC  =       190.66074556
  PAW double counting   =      6177.89880866    -6110.01964696
  entropy T*S    EENTRO =         0.02334800
  eigenvalues    EBANDS =      -626.88970841
  atomic energy  EATOM  =      5110.57042958
  ---------------------------------------------------
  free energy    TOTEN  =       -88.55327702 eV

  energy without entropy =      -88.57662502  energy(sigma->0) =      -88.56105969


--------------------------------------------------------------------------------------------------------




----------------------------------------- Iteration    1(  12)  ---------------------------------------


    POTLOK:  cpu time    0.03: real time    0.03
    SETDIJ:  cpu time    0.01: real time    0.01
     EDDAV:  cpu time    8.16: real time    8.16
       DOS:  cpu time    0.00: real time    0.00
    CHARGE:  cpu time    0.33: real time    0.33
    MIXING:  cpu time    0.00: real time    0.00
    --------------------------------------------
      LOOP:  cpu time    8.53: real time    8.63

 eigenvalue-minimisations  : 26648
 total energy-change (2. order) : 0.2105202E-02  (-0.2010385E-02)
 number of electron      75.9999938 magnetization      -0.0000000
 augmentation part       17.3093602 magnetization      -0.0000000

 Broyden mixing:
  rms(total) = 0.51600E-01    rms(broyden)= 0.51582E-01
  rms(prec ) = 0.59982E-01
  weight for this iteration     100.00

 eigenvalues of (default mixing * dielectric matrix)
  average eigenvalue GAMMA=   1.0225
  2.2206  1.1898  1.1898  0.3386  0.9561  0.6315  0.6315

 Free energy of the ion-electron system (eV)
  ---------------------------------------------------
  alpha Z        PSCENC =       180.83915956
  Ewald energy   TEWEN  =      -935.11960250
  -1/2 Hartree   DENC   =     -4077.24157817
  -exchange  EXHF       =         0.00000000
  -V(xc)+E(xc)   XCENC  =       190.42030658
  PAW double counting   =      6183.54467908    -6115.59124141
  entropy T*S    EENTRO =         0.02386417
  eigenvalues    EBANDS =      -625.99718870
  atomic energy  EATOM  =      5110.57042958
  ---------------------------------------------------
  free energy    TOTEN  =       -88.55117182 eV

  energy without entropy =      -88.57503598  energy(sigma->0) =      -88.55912654


--------------------------------------------------------------------------------------------------------




----------------------------------------- Iteration    1(  13)  ---------------------------------------


    POTLOK:  cpu time    0.03: real time    0.03
    SETDIJ:  cpu time    0.01: real time    0.01
     EDDAV:  cpu time    8.30: real time    8.31
       DOS:  cpu time    0.00: real time    0.00
    CHARGE:  cpu time    0.33: real time    0.33
    MIXING:  cpu time    0.00: real time    0.00
    --------------------------------------------
      LOOP:  cpu time    8.68: real time    8.76

 eigenvalue-minimisations  : 27256
 total energy-change (2. order) :-0.2036532E-03  (-0.5352661E-03)
 number of electron      75.9999938 magnetization      -0.0000000
 augmentation part       17.2922642 magnetization      -0.0000000

 Broyden mixing:
  rms(total) = 0.19702E-01    rms(broyden)= 0.19691E-01
  rms(prec ) = 0.22243E-01
  weight for this iteration     100.00

 eigenvalues of (default mixing * dielectric matrix)
  average eigenvalue GAMMA=   1.0390
  2.2590  1.3671  1.3671  0.3386  0.9455  0.7288  0.6530  0.6530

 Free energy of the ion-electron system (eV)
  ---------------------------------------------------
  alpha Z        PSCENC =       180.83915956
  Ewald energy   TEWEN  =      -935.11960250
  -1/2 Hartree   DENC   =     -4077.91793347
  -exchange  EXHF       =         0.00000000
  -V(xc)+E(xc)   XCENC  =       190.42352207
  PAW double counting   =      6191.80944164    -6123.93768087
  entropy T*S    EENTRO =         0.02403021
  eigenvalues    EBANDS =      -625.24274168
  atomic energy  EATOM  =      5110.57042958
  ---------------------------------------------------
  free energy    TOTEN  =       -88.55137547 eV

  energy without entropy =      -88.57540568  energy(sigma->0) =      -88.55938554


--------------------------------------------------------------------------------------------------------




----------------------------------------- Iteration    1(  14)  ---------------------------------------


    POTLOK:  cpu time    0.03: real time    0.03
    SETDIJ:  cpu time    0.01: real time    0.01
     EDDAV:  cpu time    7.56: real time    7.56
       DOS:  cpu time    0.00: real time    0.00
    CHARGE:  cpu time    0.33: real time    0.33
    MIXING:  cpu time    0.00: real time    0.00
    --------------------------------------------
      LOOP:  cpu time    7.93: real time    8.01

 eigenvalue-minimisations  : 24424
 total energy-change (2. order) :-0.1588513E-03  (-0.1302762E-03)
 number of electron      75.9999938 magnetization       0.0000000
 augmentation part       17.2887032 magnetization       0.0000000

 Broyden mixing:
  rms(total) = 0.65882E-02    rms(broyden)= 0.65823E-02
  rms(prec ) = 0.85157E-02
  weight for this iteration     100.00

 eigenvalues of (default mixing * dielectric matrix)
  average eigenvalue GAMMA=   1.0398
  2.1832  1.6715  1.1364  1.1364  0.3386  0.8073  0.8073  0.6387  0.6387

 Free energy of the ion-electron system (eV)
  ---------------------------------------------------
  alpha Z        PSCENC =       180.83915956
  Ewald energy   TEWEN  =      -935.11960250
  -1/2 Hartree   DENC   =     -4078.71455563
  -exchange  EXHF       =         0.00000000
  -V(xc)+E(xc)   XCENC  =       190.36222618
  PAW double counting   =      6195.79383034    -6127.95537546
  entropy T*S    EENTRO =         0.02424354
  eigenvalues    EBANDS =      -624.35188993
  atomic energy  EATOM  =      5110.57042958
  ---------------------------------------------------
  free energy    TOTEN  =       -88.55153432 eV

  energy without entropy =      -88.57577786  energy(sigma->0) =      -88.55961550


--------------------------------------------------------------------------------------------------------




----------------------------------------- Iteration    1(  15)  ---------------------------------------


    POTLOK:  cpu time    0.03: real time    0.03
    SETDIJ:  cpu time    0.01: real time    0.01
     EDDAV:  cpu time    4.25: real time    4.25
       DOS:  cpu time    0.00: real time    0.00
    --------------------------------------------
      LOOP:  cpu time    4.29: real time    4.57

 eigenvalue-minimisations  : 10456
 total energy-change (2. order) : 0.1664285E-05  (-0.1291662E-04)
 number of electron      75.9999938 magnetization       0.0000000
 augmentation part       17.2887032 magnetization       0.0000000

 Free energy of the ion-electron system (eV)
  ---------------------------------------------------
  alpha Z        PSCENC =       180.83915956
  Ewald energy   TEWEN  =      -935.11960250
  -1/2 Hartree   DENC   =     -4079.31932165
  -exchange  EXHF       =         0.00000000
  -V(xc)+E(xc)   XCENC  =       190.38242021
  PAW double counting   =      6196.62518081    -6128.76711779
  entropy T*S    EENTRO =         0.02430722
  eigenvalues    EBANDS =      -623.78698810
  atomic energy  EATOM  =      5110.57042958
  ---------------------------------------------------
  free energy    TOTEN  =       -88.55153266 eV

  energy without entropy =      -88.57583988  energy(sigma->0) =      -88.55963506


--------------------------------------------------------------------------------------------------------




 average (electrostatic) potential at core
  the test charge radii are     1.0210  0.7215
  (the norm of the test charge is              1.0000)
       1 -52.3033       2 -52.3033       3 -52.3033       4 -52.3033       5 -76.4114
       6 -76.4114       7 -76.4114       8 -76.4114       9 -76.4114      10 -76.4114
      11 -76.4114      12 -76.4114
 
 
 
 E-fermi :  -2.5357     XC(G=0):  -7.6315     alpha+bet : -6.0608


 spin component 1

 k-point   1 :       0.0000    0.0000    0.0000
  band No.  band energies     occupation 
      1     -20.5426      1.00000
      2     -19.1887      1.00000
      3     -19.1074      1.00000
      4     -19.1027      1.00000
      5     -19.0935      1.00000
      6     -18.9966      1.00000
      7     -18.9367      1.00000
      8     -18.7017      1.00000
      9      -8.5895      1.00000
     10      -8.3632      1.00000
     11      -7.9168      1.00000
     12      -7.6497      1.00000
     13      -7.1508      1.00000
     14      -6.8564      1.00000
     15      -6.5705      1.00000
     16      -6.5693      1.00000
     17      -6.4811      1.00000
     18      -6.0615      1.00000
     19      -5.9396      1.00000
     20      -5.8741      1.00000
     21      -5.8611      1.00000
     22      -5.2313      1.00000
     23      -5.1685      1.00000
     24      -5.1065      1.00000
     25      -4.6898      1.00000
     26      -4.5720      1.00000
     27      -4.3452      1.00000
     28      -4.3275      1.00000
     29      -3.9917      1.00000
     30      -3.9293      1.00000
     31      -3.8000      1.00000
     32      -3.6106      1.00000
     33      -3.5755      1.00000
     34      -3.5487      1.00000
     35      -3.4616      1.00000
     36      -3.1699      1.00003
     37      -2.9402      1.00743
     38      -2.8067      1.03329
     39      -0.7928     -0.00000
     40      -0.3977     -0.00000
     41       0.1344     -0.00000
     42       0.1877     -0.00000
     43       0.7151     -0.00000
     44       1.2381     -0.00000
     45       1.3062     -0.00000
     46       1.3880     -0.00000
     47       1.5685     -0.00000
     48       1.6174     -0.00000

 k-point   2 :       0.1667    0.0000   -0.0000
  band No.  band energies     occupation 
      1     -20.4612      1.00000
      2     -19.2434      1.00000
      3     -19.2420      1.00000
      4     -19.1303      1.00000
      5     -19.0341      1.00000
      6     -18.9508      1.00000
      7     -18.9201      1.00000
      8     -18.7121      1.00000
      9      -8.4918      1.00000
     10      -8.2516      1.00000
     11      -7.8352      1.00000
     12      -7.5910      1.00000
     13      -7.1013      1.00000
     14      -6.8918      1.00000
     15      -6.7259      1.00000
     16      -6.5408      1.00000
     17      -6.5036      1.00000
     18      -6.1810      1.00000
     19      -5.9923      1.00000
     20      -5.8124      1.00000
     21      -5.7291      1.00000
     22      -5.1855      1.00000
     23      -5.0919      1.00000
     24      -5.0618      1.00000
     25      -4.9955      1.00000
     26      -4.8469      1.00000
     27      -4.5846      1.00000
     28      -4.3153      1.00000
     29      -4.0753      1.00000
     30      -3.7926      1.00000
     31      -3.6930      1.00000
     32      -3.6406      1.00000
     33      -3.4497      1.00000
     34      -3.3935      1.00000
     35      -3.3923      1.00000
     36      -3.1012      1.00024
     37      -3.0457      1.00093
     38      -2.9149      1.01103
     39      -0.6858     -0.00000
     40      -0.3047     -0.00000
     41       0.0861     -0.00000
     42       0.0875     -0.00000
     43       0.7019     -0.00000
     44       1.2217     -0.00000
     45       1.3242     -0.00000
     46       1.3286     -0.00000
     47       1.5465     -0.00000
     48       1.5965     -0.00000

 k-point   3 :       0.3333    0.0000    0.0000
  band No.  band energies     occupation 
      1     -20.2319      1.00000
      2     -19.5388      1.00000
      3     -19.3039      1.00000
      4     -19.1661      1.00000
      5     -18.9616      1.00000
      6     -18.9017      1.00000
      7     -18.8996      1.00000
      8     -18.7381      1.00000
      9      -8.2633      1.00000
     10      -8.0737      1.00000
     11      -7.7249      1.00000
     12      -7.4458      1.00000
     13      -6.9944      1.00000
     14      -6.7984      1.00000
     15      -6.6933      1.00000
     16      -6.5210      1.00000
     17      -6.4575      1.00000
     18      -6.4272      1.00000
     19      -6.1903      1.00000
     20      -5.7465      1.00000
     21      -5.7094      1.00000
     22      -5.4388      1.00000
     23      -5.4034      1.00000
     24      -5.2465      1.00000
     25      -5.0751      1.00000
     26      -4.8693      1.00000
     27      -4.6657      1.00000
     28      -4.5692      1.00000
     29      -3.9549      1.00000
     30      -3.8673      1.00000
     31      -3.7954      1.00000
     32      -3.7124      1.00000
     33      -3.3627      1.00000
     34      -3.2855      1.00000
     35      -3.1441      1.00007
     36      -3.0953      1.00028
     37      -2.9549      1.00579
     38      -2.7389      1.02669
     39      -0.4709     -0.00000
     40      -0.3666     -0.00000
     41      -0.0471     -0.00000
     42       0.0827     -0.00000
     43       0.6684     -0.00000
     44       1.1709     -0.00000
     45       1.1963     -0.00000
     46       1.3777     -0.00000
     47       1.3785     -0.00000
     48       1.6458     -0.00000

 k-point   4 :       0.5000    0.0000   -0.0000
  band No.  band energies     occupation 
      1     -19.9004      1.00000
      2     -19.8988      1.00000
      3     -19.3267      1.00000
      4     -19.1813      1.00000
      5     -18.9270      1.00000
      6     -18.8980      1.00000
      7     -18.8768      1.00000
      8     -18.7562      1.00000
      9      -8.1233      1.00000
     10      -8.0203      1.00000
     11      -7.7123      1.00000
     12      -7.3662      1.00000
     13      -6.9449      1.00000
     14      -6.5559      1.00000
     15      -6.5411      1.00000
     16      -6.4392      1.00000
     17      -6.4254      1.00000
     18      -6.3800      1.00000
     19      -6.2834      1.00000
     20      -6.1716      1.00000
     21      -5.7750      1.00000
     22      -5.6221      1.00000
     23      -5.5835      1.00000
     24      -5.5554      1.00000
     25      -4.9983      1.00000
     26      -4.7222      1.00000
     27      -4.6801      1.00000
     28      -4.4122      1.00000
     29      -4.2200      1.00000
     30      -4.1134      1.00000
     31      -3.7662      1.00000
     32      -3.6911      1.00000
     33      -3.3161      1.00000
     34      -3.2136      1.00001
     35      -3.0954      1.00028
     36      -3.0415      1.00102
     37      -2.7477      1.03026
     38      -2.6236      0.83497
     39      -0.5508     -0.00000
     40      -0.3742     -0.00000
     41      -0.1107     -0.00000
     42       0.2062     -0.00000
     43       0.6483     -0.00000
     44       1.0970     -0.00000
     45       1.1619     -0.00000
     46       1.2689     -0.00000
     47       1.4053     -0.00000
     48       1.6596     -0.00000

 k-point   5 :       0.0000    0.1667    0.0000
  band No.  band energies     occupation 
      1     -20.4624      1.00000
      2     -19.2711      1.00000
      3     -19.2068      1.00000
      4     -19.1464      1.00000
      5     -19.0165      1.00000
      6     -18.9638      1.00000
      7     -18.9135      1.00000
      8     -18.7134      1.00000
      9      -8.4571      1.00000
     10      -8.2455      1.00000
     11      -7.8004      1.00000
     12      -7.5745      1.00000
     13      -7.1786      1.00000
     14      -6.8695      1.00000
     15      -6.7257      1.00000
     16      -6.6611      1.00000
     17      -6.5267      1.00000
     18      -6.2330      1.00000
     19      -6.1601      1.00000
     20      -5.6809      1.00000
     21      -5.5881      1.00000
     22      -5.2625      1.00000
     23      -5.2352      1.00000
     24      -5.0153      1.00000
     25      -4.9151      1.00000
     26      -4.6128      1.00000
     27      -4.3143      1.00000
     28      -4.2712      1.00000
     29      -4.2171      1.00000
     30      -3.9279      1.00000
     31      -3.8720      1.00000
     32      -3.6123      1.00000
     33      -3.5266      1.00000
     34      -3.3985      1.00000
     35      -3.2920      1.00000
     36      -3.0644      1.00060
     37      -3.0295      1.00133
     38      -2.9234      1.00971
     39      -0.7512     -0.00000
     40      -0.4070     -0.00000
     41       0.0893     -0.00000
     42       0.1110     -0.00000
     43       0.8226     -0.00000
     44       1.2614     -0.00000
     45       1.2966     -0.00000
     46       1.3811     -0.00000
     47       1.5546     -0.00000
     48       1.5603     -0.00000

 k-point   6 :       0.1667    0.1667   -0.0000
  band No.  band energies     occupation 
      1     -20.2987      1.00000
      2     -19.4016      1.00000
      3     -19.3752      1.00000
      4     -19.0676      1.00000
      5     -19.0575      1.00000
      6     -18.9160      1.00000
      7     -18.8813      1.00000
      8     -18.7336      1.00000
      9      -8.2850      1.00000
     10      -8.0669      1.00000
     11      -7.6872      1.00000
     12      -7.4647      1.00000
     13      -7.1161      1.00000
     14      -6.9008      1.00000
     15      -6.8184      1.00000
     16      -6.6556      1.00000
     17      -6.5745      1.00000
     18      -6.3206      1.00000
     19      -6.0126      1.00000
     20      -5.8506      1.00000
     21      -5.5099      1.00000
     22      -5.3536      1.00000
     23      -5.3212      1.00000
     24      -5.0694      1.00000
     25      -5.0248      1.00000
     26      -4.8713      1.00000
     27      -4.6163      1.00000
     28      -4.5129      1.00000
     29      -4.1307      1.00000
     30      -3.8750      1.00000
     31      -3.7123      1.00000
     32      -3.5598      1.00000
     33      -3.4651      1.00000
     34      -3.3822      1.00000
     35      -3.1292      1.00011
     36      -3.0943      1.00028
     37      -3.0247      1.00148
     38      -2.8040      1.03368
     39      -0.5939     -0.00000
     40      -0.2477     -0.00000
     41      -0.1272     -0.00000
     42      -0.0184     -0.00000
     43       0.8085     -0.00000
     44       1.2440     -0.00000
     45       1.2815     -0.00000
     46       1.3461     -0.00000
     47       1.4435     -0.00000
     48       1.6045     -0.00000

 k-point   7 :       0.3333    0.1667   -0.0000
  band No.  band energies     occupation 
      1     -20.0105      1.00000
      2     -19.7044      1.00000
      3     -19.4907      1.00000
      4     -19.0809      1.00000
      5     -18.9675      1.00000
      6     -18.8829      1.00000
      7     -18.8667      1.00000
      8     -18.7611      1.00000
      9      -8.0948      1.00000
     10      -7.9599      1.00000
     11      -7.6596      1.00000
     12      -7.3425      1.00000
     13      -7.0579      1.00000
     14      -6.7092      1.00000
     15      -6.6592      1.00000
     16      -6.6106      1.00000
     17      -6.5374      1.00000
     18      -6.4165      1.00000
     19      -6.0967      1.00000
     20      -6.0589      1.00000
     21      -5.7232      1.00000
     22      -5.6065      1.00000
     23      -5.4753      1.00000
     24      -5.3534      1.00000
     25      -4.8695      1.00000
     26      -4.8265      1.00000
     27      -4.7262      1.00000
     28      -4.4574      1.00000
     29      -4.3449      1.00000
     30      -4.0106      1.00000
     31      -3.7843      1.00000
     32      -3.5259      1.00000
     33      -3.3878      1.00000
     34      -3.3557      1.00000
     35      -3.1618      1.00004
     36      -2.9130      1.01134
     37      -2.8021      1.03393
     38      -2.6324      0.86084
     39      -0.4112     -0.00000
     40      -0.4094     -0.00000
     41      -0.1324     -0.00000
     42      -0.0155     -0.00000
     43       0.7886     -0.00000
     44       1.1596     -0.00000
     45       1.2188     -0.00000
     46       1.2912     -0.00000
     47       1.3917     -0.00000
     48       1.6387     -0.00000

 k-point   8 :       0.5000    0.1667   -0.0000
  band No.  band energies     occupation 
      1     -20.0484      1.00000
      2     -19.6581      1.00000
      3     -19.5131      1.00000
      4     -19.0814      1.00000
      5     -18.9340      1.00000
      6     -18.8909      1.00000
      7     -18.8748      1.00000
      8     -18.7599      1.00000
      9      -8.1173      1.00000
     10      -7.9683      1.00000
     11      -7.6631      1.00000
     12      -7.3538      1.00000
     13      -7.0638      1.00000
     14      -6.6739      1.00000
     15      -6.6598      1.00000
     16      -6.6296      1.00000
     17      -6.5854      1.00000
     18      -6.4034      1.00000
     19      -6.0839      1.00000
     20      -6.0570      1.00000
     21      -5.7459      1.00000
     22      -5.6529      1.00000
     23      -5.4074      1.00000
     24      -5.2360      1.00000
     25      -4.9482      1.00000
     26      -4.8116      1.00000
     27      -4.7037      1.00000
     28      -4.4449      1.00000
     29      -4.3661      1.00000
     30      -3.9832      1.00000
     31      -3.7916      1.00000
     32      -3.6117      1.00000
     33      -3.3978      1.00000
     34      -3.2706      1.00000
     35      -3.1848      1.00002
     36      -2.9121      1.01149
     37      -2.8050      1.03355
     38      -2.6431      0.88958
     39      -0.4972     -0.00000
     40      -0.4612     -0.00000
     41      -0.0148     -0.00000
     42       0.0900     -0.00000
     43       0.7872     -0.00000
[...]
     17      -6.5893      1.00000
     18      -6.4151      1.00000
     19      -5.9076      1.00000
     20      -5.8269      1.00000
     21      -5.6303      1.00000
     22      -5.3319      1.00000
     23      -5.1717      1.00000
     24      -4.7621      1.00000
     25      -4.6928      1.00000
     26      -4.6804      1.00000
     27      -4.4068      1.00000
     28      -4.2415      1.00000
     29      -4.0142      1.00000
     30      -3.9100      1.00000
     31      -3.6971      1.00000
     32      -3.2727      1.00000
     33      -3.1278      1.00000
     34      -2.9993      1.00000
     35      -2.8463      1.00010
     36      -2.5927      1.01765
     37      -2.4754      1.03404
     38      -2.3929      0.96735
     39      -0.0242     -0.00000
     40       0.0365     -0.00000
     41       0.4731     -0.00000
     42       0.5258     -0.00000
     43       1.5339     -0.00000
     44       1.5920     -0.00000
     45       1.6059     -0.00000
     46       1.7041     -0.00000
     47       1.7228     -0.00000
     48       1.8237     -0.00000

 k-point  75 :       0.3333    0.5000    0.5000
  band No.  band energies     occupation 
      1     -20.1013      1.00000
      2     -19.7272      1.00000
      3     -19.4353      1.00000
      4     -18.9850      1.00000
      5     -18.9005      1.00000
      6     -18.7966      1.00000
      7     -18.7231      1.00000
      8     -18.6454      1.00000
      9      -7.7460      1.00000
     10      -7.7186      1.00000
     11      -7.6354      1.00000
     12      -7.6232      1.00000
     13      -6.9880      1.00000
     14      -6.9716      1.00000
     15      -6.8902      1.00000
     16      -6.8062      1.00000
     17      -6.5909      1.00000
     18      -6.4169      1.00000
     19      -5.9073      1.00000
     20      -5.8266      1.00000
     21      -5.6285      1.00000
     22      -5.3324      1.00000
     23      -5.1703      1.00000
     24      -4.7631      1.00000
     25      -4.6927      1.00000
     26      -4.6802      1.00000
     27      -4.4051      1.00000
     28      -4.2407      1.00000
     29      -4.0138      1.00000
     30      -3.9096      1.00000
     31      -3.6988      1.00000
     32      -3.2743      1.00000
     33      -3.1276      1.00000
     34      -3.0000      1.00000
     35      -2.8488      1.00009
     36      -2.5958      1.01698
     37      -2.4723      1.03347
     38      -2.3915      0.96489
     39      -0.0217     -0.00000
     40       0.0383     -0.00000
     41       0.4715     -0.00000
     42       0.5251     -0.00000
     43       1.5352     -0.00000
     44       1.5908     -0.00000
     45       1.6053     -0.00000
     46       1.6998     -0.00000
     47       1.7298     -0.00000
     48       1.8260     -0.00000

 k-point  76 :       0.5000    0.5000    0.5000
  band No.  band energies     occupation 
      1     -19.9673      1.00000
      2     -19.9673      1.00000
      3     -19.1646      1.00000
      4     -19.1646      1.00000
      5     -18.8510      1.00000
      6     -18.8510      1.00000
      7     -18.6744      1.00000
      8     -18.6744      1.00000
      9      -7.7223      1.00000
     10      -7.7223      1.00000
     11      -7.5981      1.00000
     12      -7.5981      1.00000
     13      -7.0476      1.00000
     14      -7.0476      1.00000
     15      -6.8999      1.00000
     16      -6.8999      1.00000
     17      -6.4589      1.00000
     18      -6.4589      1.00000
     19      -5.7958      1.00000
     20      -5.7958      1.00000
     21      -5.4868      1.00000
     22      -5.4868      1.00000
     23      -5.0526      1.00000
     24      -5.0526      1.00000
     25      -4.5900      1.00000
     26      -4.5900      1.00000
     27      -4.4243      1.00000
     28      -4.4243      1.00000
     29      -4.0110      1.00000
     30      -4.0110      1.00000
     31      -3.3879      1.00000
     32      -3.3879      1.00000
     33      -3.0821      1.00000
     34      -3.0821      1.00000
     35      -2.6824      1.00445
     36      -2.6824      1.00445
     37      -2.3959      0.97214
     38      -2.3959      0.97214
     39      -0.1846     -0.00000
     40      -0.1845     -0.00000
     41       0.6494     -0.00000
     42       0.6494     -0.00000
     43       1.5901     -0.00000
     44       1.5901     -0.00000
     45       1.6337     -0.00000
     46       1.6337     -0.00000
     47       1.7675     -0.00000
     48       1.7675     -0.00000


--------------------------------------------------------------------------------------------------------


 soft charge-density along one line, spin component           1
         0         1         2         3         4         5         6         7         8         9
 total charge-density along one line
 
 soft charge-density along one line, spin component           2
         0         1         2         3         4         5         6         7         8         9
 total charge-density along one line
 
 pseudopotential strength for first ion, spin component:           1
-12.317  -0.029   0.018  -0.822  -0.030 -12.816  -0.030   0.018
 -0.029 -11.989  -0.002  -0.000  -0.849  -0.030 -12.482  -0.002
  0.018  -0.002 -12.937  -0.008   0.007   0.018  -0.002 -13.452
 -0.822  -0.000  -0.008 -11.995   0.075  -0.841  -0.000  -0.009
 -0.030  -0.849   0.007   0.075 -12.283  -0.031  -0.869   0.007
-12.816  -0.030   0.018  -0.841  -0.031 -13.298  -0.030   0.019
 -0.030 -12.482  -0.002  -0.000  -0.869  -0.030 -12.956  -0.003
  0.018  -0.002 -13.452  -0.009   0.007   0.019  -0.003 -13.956
 -0.841  -0.000  -0.009 -12.488   0.077  -0.866  -0.001  -0.009
 -0.031  -0.869   0.007   0.077 -12.781  -0.032  -0.894   0.007
 -0.000  -0.001  -0.004  -0.002  -0.000  -0.000  -0.001  -0.004
 -0.000  -0.002  -0.007  -0.003  -0.000  -0.000  -0.002  -0.007
  0.000   0.000   0.000  -0.000   0.000   0.000   0.000   0.000
 -0.000  -0.000   0.000   0.000   0.000  -0.000  -0.000   0.000
  0.000  -0.000  -0.000   0.000   0.000   0.000  -0.000  -0.000
  0.000   0.000   0.000  -0.000   0.000   0.000   0.000   0.000
 -0.000  -0.000   0.000   0.000   0.000  -0.000  -0.000   0.000
  0.000  -0.000  -0.000   0.000   0.000   0.000  -0.000  -0.000
 pseudopotential strength for first ion, spin component:           2
 -8.360   0.019  -0.012   0.648   0.017  -8.832   0.020  -0.012
  0.019  -8.473  -0.009   0.013   0.674   0.020  -8.946  -0.009
 -0.012  -0.009  -7.721  -0.011  -0.004  -0.012  -0.009  -8.184
  0.648   0.013  -0.011  -8.454  -0.063   0.657   0.013  -0.011
  0.017   0.674  -0.004  -0.063  -8.379   0.017   0.683  -0.004
 -8.832   0.020  -0.012   0.657   0.017  -9.271   0.020  -0.012
  0.020  -8.946  -0.009   0.013   0.683   0.020  -9.388  -0.009
 -0.012  -0.009  -8.184  -0.011  -0.004  -0.012  -0.009  -8.612
  0.657   0.013  -0.011  -8.927  -0.064   0.669   0.013  -0.012
  0.017   0.683  -0.004  -0.064  -8.850   0.017   0.696  -0.004
 -0.003   0.002  -0.024   0.004  -0.002  -0.003   0.002  -0.025
 -0.006   0.005  -0.047   0.008  -0.003  -0.006   0.005  -0.048
  0.000   0.000   0.000  -0.000   0.000   0.000   0.000   0.000
 -0.000  -0.000   0.000   0.000   0.000  -0.000  -0.000   0.000
  0.000  -0.000  -0.000   0.000   0.000   0.000  -0.000  -0.000
  0.000   0.000   0.000  -0.000   0.000   0.000   0.000   0.000
 -0.000  -0.000   0.000   0.000   0.000  -0.000  -0.000   0.000
  0.000  -0.000  -0.000   0.000   0.000   0.000  -0.000  -0.000
 total augmentation occupancy for first ion, spin component:           1
  6.899   0.054  -0.226   2.208   0.060  -5.841   0.009   0.175  -0.836  -0.031  -0.019  -0.010   0.000   0.000   0.000   0.000
  0.054   5.711   0.004  -0.052   2.309   0.007  -5.006   0.000   0.040  -0.933   0.010   0.001   0.000  -0.000   0.000   0.000
 -0.226   0.004   8.312   0.017  -0.110   0.176   0.001  -6.009  -0.002   0.087   0.999  -0.140   0.000   0.000   0.000  -0.000
  2.208  -0.052   0.017   5.669  -0.227  -0.860   0.040  -0.002  -4.966   0.119   0.020   0.002  -0.000  -0.000  -0.000   0.000
  0.060   2.309  -0.110  -0.227   6.835  -0.031  -0.910   0.087   0.118  -5.806  -0.006  -0.006  -0.000  -0.000   0.000   0.000
 -5.841   0.007   0.176  -0.860  -0.031   5.858  -0.063  -0.133  -0.339   0.009   0.016   0.007   0.000   0.000   0.000   0.000
  0.009  -5.006   0.001   0.040  -0.910  -0.063   5.310  -0.001  -0.029  -0.289  -0.009  -0.001   0.000   0.000  -0.000  -0.000
  0.175   0.000  -6.009  -0.002   0.087  -0.133  -0.001   4.925  -0.006  -0.069  -1.029   0.154  -0.000   0.000  -0.000  -0.000
 -0.836   0.040  -0.002  -4.966   0.118  -0.339  -0.029  -0.006   5.272  -0.024  -0.020  -0.001   0.000  -0.000   0.000   0.000
 -0.031  -0.933   0.087   0.119  -5.806   0.009  -0.289  -0.069  -0.024   5.845   0.005   0.004   0.000  -0.000   0.000   0.000
 -0.019   0.010   0.999   0.020  -0.006   0.016  -0.009  -1.029  -0.020   0.005   2.720  -0.410  -0.000   0.000   0.000   0.000
 -0.010   0.001  -0.140   0.002  -0.006   0.007  -0.001   0.154  -0.001   0.004  -0.410   0.088   0.000   0.000  -0.000  -0.000
  0.000   0.000   0.000   0.000  -0.000   0.000   0.000   0.000   0.000   0.000   0.000   0.000   0.400   0.000  -0.001  -0.033
  0.000   0.000   0.000   0.000   0.000   0.000  -0.000   0.000  -0.000   0.000   0.000   0.000   0.000   0.311   0.000  -0.000
  0.000  -0.000  -0.000  -0.000   0.000   0.000  -0.000   0.000   0.000   0.000  -0.000  -0.000  -0.001   0.000   0.399   0.000
 -0.000   0.000  -0.000   0.000   0.000   0.000   0.000   0.000   0.000   0.000   0.000   0.000  -0.033  -0.000   0.000   0.003
  0.000   0.000   0.000  -0.000   0.000   0.000   0.000   0.000   0.000  -0.000   0.000  -0.000  -0.000  -0.025  -0.000   0.000
  0.000   0.000  -0.000   0.000   0.000   0.000  -0.000   0.000   0.000  -0.000   0.000   0.000   0.000  -0.000  -0.033  -0.000
 total augmentation occupancy for first ion, spin component:           2
  4.285   0.168  -0.256   3.798   0.061  -2.529  -0.130   0.222  -2.780  -0.026  -0.061  -0.007   0.000   0.000   0.000   0.000
  0.168   3.078   0.011  -0.081   3.882  -0.132  -1.636  -0.009   0.078  -2.861   0.024   0.000  -0.000  -0.000  -0.000   0.000
 -0.256   0.011   7.416   0.037  -0.122   0.217  -0.005  -4.790  -0.021   0.105   0.250   0.012  -0.000   0.000  -0.000   0.000
  3.798  -0.081   0.037   3.021  -0.311  -2.809   0.078  -0.028  -1.574   0.222   0.039   0.001   0.000   0.000   0.000   0.000
  0.061   3.882  -0.122  -0.311   4.232  -0.027  -2.832   0.108   0.220  -2.516  -0.031  -0.004  -0.000   0.000  -0.000  -0.000
 -2.529  -0.132   0.217  -2.809  -0.027   1.498   0.107  -0.191   2.184   0.005   0.046   0.004   0.000   0.000   0.000   0.000
 -0.130  -1.636  -0.005   0.078  -2.832   0.107   0.805   0.001  -0.071   2.219  -0.012  -0.000   0.000  -0.000  -0.000   0.000
  0.222  -0.009  -4.790  -0.028   0.108  -0.191   0.001   3.235   0.012  -0.093  -0.164  -0.014   0.000   0.000   0.000   0.000
 -2.780   0.078  -0.021  -1.574   0.220   2.184  -0.071   0.012   0.746  -0.167  -0.019  -0.000  -0.000  -0.000   0.000   0.000
 -0.026  -2.861   0.105   0.222  -2.516   0.005   2.219  -0.093  -0.167   1.511   0.024   0.002   0.000   0.000   0.000   0.000
 -0.061   0.024   0.250   0.039  -0.031   0.046  -0.012  -0.164  -0.019   0.024  -0.278   0.111  -0.000  -0.000  -0.000  -0.000
 -0.007   0.000   0.012   0.001  -0.004   0.004  -0.000  -0.014  -0.000   0.002   0.111  -0.020   0.000   0.000  -0.000  -0.000
 -0.000  -0.000  -0.000   0.000  -0.000  -0.000   0.000   0.000   0.000   0.000  -0.000   0.000   0.013  -0.000  -0.006   0.001
  0.000   0.000   0.000  -0.000   0.000   0.000  -0.000   0.000  -0.000   0.000  -0.000   0.000  -0.000   0.015  -0.001   0.000
  0.000   0.000   0.000   0.000   0.000   0.000  -0.000   0.000   0.000   0.000  -0.000   0.000  -0.006  -0.001   0.008  -0.000
  0.000   0.000   0.000  -0.000  -0.000   0.000   0.000  -0.000  -0.000   0.000  -0.000   0.000   0.001   0.000  -0.000  -0.000
 -0.000   0.000  -0.000  -0.000   0.000   0.000  -0.000  -0.000  -0.000  -0.000   0.000  -0.000   0.000  -0.000   0.000  -0.000
  0.000   0.000   0.000   0.000   0.000   0.000   0.000   0.000   0.000   0.000   0.000   0.000  -0.000   0.000   0.001   0.000


------------------------ aborting loop because EDIFF is reached ----------------------------------------


    CHARGE:  cpu time    0.32: real time    0.32
    FORLOC:  cpu time    0.00: real time    0.00
    FORNL :  cpu time    1.17: real time    1.17
    STRESS:  cpu time    1.54: real time    1.54
    FORCOR:  cpu time    0.03: real time    0.03
    FORHAR:  cpu time    0.00: real time    0.00
    MIXING:  cpu time    0.00: real time    0.00

  FORCE on cell =-STRESS in cart. coord.  units (eV):
  Direction    XX          YY          ZZ          XY          YZ          ZX
  --------------------------------------------------------------------------------------
  Alpha Z   189.69157   189.69157   189.69157
  Ewald    2342.38923  2345.44299 -5559.52523    -1.87066   -12.25766   -41.67984
  Hartree  3517.54474  3518.47972 -2872.62644    -0.55392   -10.59099   -34.77366
  E(xc)    -370.04456  -370.03800  -369.07657    -0.01513    -0.00782    -0.01017
  Local   -6889.37175 -6892.86073  7347.27760     2.03513    23.28844    76.99775
  n-local  -253.59496  -253.34664  -265.31018    -0.26281     0.11255     0.15308
  augment   172.30554   172.04879   178.33735     0.23323    -0.09527    -0.14938
  Kinetic  1291.28003  1290.74167  1351.36082     0.38017    -0.39717    -0.57566
  Fock        0.00000     0.00000     0.00000     0.00000     0.00000     0.00000
  -------------------------------------------------------------------------------------
  Total       0.19983     0.15935     0.12891    -0.05398     0.05208    -0.03790
  in kB       1.59584     1.27261     1.02947    -0.43109     0.41591    -0.30266
  external pressure =        1.30 kB  Pullay stress =        0.00 kB


 VOLUME and BASIS-vectors are now :
 -----------------------------------------------------------------------------
  energy-cutoff  :      520.00
  volume of cell :      200.62
      direct lattice vectors                 reciprocal lattice vectors
     5.742664680  0.120056527 -0.031734710     0.172101809  0.104095754  0.025850338
    -2.973541556  4.914181885  0.007984859    -0.004316442  0.200914956 -0.021009332
    -1.480738404  0.703015562  7.027251475     0.000782108  0.000241797  0.142443758

  length of vectors
     5.744007163  5.743796370  7.215890825     0.202788556  0.202056535  0.142446110


 FORCES acting on ions
    electron-ion (+dipol)            ewald-force                    non-local-force                 convergence-correction
 -----------------------------------------------------------------------------------------------
   0.177E-06 -.817E-07 0.544E-06   -.174E-05 0.806E-06 -.544E-05   -.450E-22 -.449E-22 -.178E-21   0.152E-10 0.704E-09 -.191E-08
   0.177E-06 -.817E-07 0.544E-06   -.174E-05 0.806E-06 -.544E-05   -.746E-22 -.218E-22 -.100E-21   0.145E-10 0.704E-09 -.191E-08
   0.177E-06 -.817E-07 0.544E-06   -.174E-05 0.806E-06 -.544E-05   0.310E-22 -.148E-22 0.190E-22   0.147E-10 0.703E-09 -.191E-08
   0.177E-06 -.817E-07 0.544E-06   -.174E-05 0.806E-06 -.544E-05   -.307E-22 -.184E-22 -.149E-21   0.154E-10 0.703E-09 -.191E-08
   -.271E+01 -.930E+00 -.449E+03   0.283E+01 0.959E+00 0.474E+03   -.116E+00 -.205E-01 -.259E+02   -.717E-02 -.619E-02 0.169E-01
   0.271E+01 0.930E+00 0.449E+03   -.283E+01 -.959E+00 -.474E+03   0.116E+00 0.205E-01 0.259E+02   0.717E-02 0.619E-02 -.169E-01
   -.271E+01 -.929E+00 -.449E+03   0.283E+01 0.959E+00 0.474E+03   -.116E+00 -.205E-01 -.259E+02   -.717E-02 -.619E-02 0.169E-01
   0.271E+01 0.929E+00 0.449E+03   -.283E+01 -.959E+00 -.474E+03   0.116E+00 0.205E-01 0.259E+02   0.717E-02 0.619E-02 -.169E-01
   -.271E+01 -.930E+00 -.449E+03   0.283E+01 0.959E+00 0.474E+03   -.116E+00 -.205E-01 -.259E+02   -.717E-02 -.619E-02 0.169E-01
   0.271E+01 0.930E+00 0.449E+03   -.283E+01 -.959E+00 -.474E+03   0.116E+00 0.205E-01 0.259E+02   0.717E-02 0.619E-02 -.169E-01
   -.271E+01 -.929E+00 -.449E+03   0.283E+01 0.959E+00 0.474E+03   -.116E+00 -.205E-01 -.259E+02   -.717E-02 -.619E-02 0.169E-01
   0.271E+01 0.929E+00 0.449E+03   -.283E+01 -.959E+00 -.474E+03   0.116E+00 0.205E-01 0.259E+02   0.717E-02 0.619E-02 -.169E-01
 -----------------------------------------------------------------------------------------------
   0.681E-04 -.326E-04 -.402E-03   -.488E-14 0.711E-14 -.568E-13   0.333E-15 -.590E-16 -.107E-13   -.971E-08 0.133E-07 0.429E-07
 
 
 POSITION                                       TOTAL-FORCE (eV/Angst)
 -----------------------------------------------------------------------------------
     -0.00000      0.00000      0.00000        -0.000000      0.000000     -0.000000
     -1.48677      2.45709      0.00399        -0.000000      0.000000     -0.000000
      2.87133      0.06003     -0.01587        -0.000000      0.000000     -0.000000
      1.38456      2.51712     -0.01187        -0.000000      0.000000     -0.000000
     -1.51677      4.11552      0.95821        -0.004395      0.002290      0.011360
      2.80515      1.62174      6.04529         0.004395     -0.002290     -0.011360
     -0.03000      1.65843      0.95422        -0.004395      0.002290      0.011360
      1.31838      4.07883      6.04929         0.004395     -0.002290     -0.011360
      1.35456      4.17555      0.94234        -0.004395      0.002290      0.011360
     -0.06618      1.56171      6.06116         0.004395     -0.002290     -0.011360
      2.84133      1.71845      0.93835        -0.004395      0.002290      0.011360
     -1.55295      4.01880      6.06515         0.004395     -0.002290     -0.011360
 -----------------------------------------------------------------------------------
    total drift:                                0.000068     -0.000033     -0.000402


--------------------------------------------------------------------------------------------------------



  FREE ENERGIE OF THE ION-ELECTRON SYSTEM (eV)
  ---------------------------------------------------
  free  energy   TOTEN  =       -89.02517540 eV

  energy  without entropy=      -89.04880785  energy(sigma->0) =      -89.03305288
 
 d Force = 0.1067634E-03[ 0.424E-04, 0.171E-03]  d Energy = 0.2869492E-03-0.180E-03
 d Force = 0.1675019E+01[ 0.167E+01, 0.168E+01]  d Ewald  = 0.2569879E+00 0.142E+01


--------------------------------------------------------------------------------------------------------


    POTLOK:  cpu time    0.04: real time    0.04


--------------------------------------------------------------------------------------------------------




--------------------------------------------------------------------------------------------------------


  
 reached required accuracy - stopping structural energy minimisation
     LOOP+:  cpu time   19.79: real time   21.34
    4ORBIT:  cpu time    0.00: real time    0.00

 total amount of memory used by VASP on root node    86780. kBytes
========================================================================

   base      :      30000. kBytes
   nonl-proj :      31618. kBytes
   fftplans  :       1012. kBytes
   grid      :       2578. kBytes
   one-center:         93. kBytes
   wavefun   :      21479. kBytes
 
  
  
 General timing and accounting informations for this job:
 ========================================================
  
                  Total CPU time used (sec):      425.731
                            User time (sec):      424.475
                          System time (sec):        1.256
                         Elapsed time (sec):      443.484
  
                   Maximum memory used (kb):      172160.
                   Average memory used (kb):           0.
  
                          Minor page faults:        17590
                          Major page faults:            0
                 Voluntary context switches:        16280
