 vasp.5.3.3 18Dez12 (build May 12 2016 12:04:25) complex                        
  
 executed on             LinuxIFC date 2019.05.05  21:30:38
 running on   64 total cores
 distrk:  each k-point on   64 cores,    1 groups
 distr:  one band on NCORES_PER_BAND=   8 cores,    8 groups


--------------------------------------------------------------------------------------------------------


 INCAR:
 POTCAR:   PAW_PBE O_s 07Sep2000                  
 POTCAR:   PAW_PBE Mn 06Sep2000                   
 POTCAR:   PAW_PBE O_s 07Sep2000                  
  local pseudopotential read in
  atomic valenz-charges read in
  non local Contribution for L=           0  read in
    real space projection operators read in
  non local Contribution for L=           0  read in
    real space projection operators read in
  non local Contribution for L=           1  read in
    real space projection operators read in
  non local Contribution for L=           1  read in
    real space projection operators read in
    PAW grid and wavefunctions read in
 
   number of l-projection  operators is LMAX  =           4
   number of lm-projection operators is LMMAX =           8
 
 POTCAR:   PAW_PBE Mn 06Sep2000                   
  local pseudopotential read in
  partial core-charges read in
  atomic valenz-charges read in
  non local Contribution for L=           2  read in
    real space projection operators read in
  non local Contribution for L=           2  read in
    real space projection operators read in
  non local Contribution for L=           0  read in
    real space projection operators read in
  non local Contribution for L=           0  read in
    real space projection operators read in
  non local Contribution for L=           1  read in
    real space projection operators read in
  non local Contribution for L=           1  read in
    real space projection operators read in
    PAW grid and wavefunctions read in
 
   number of l-projection  operators is LMAX  =           6
   number of lm-projection operators is LMMAX =          18
 

 ----------------------------------------------------------------------------- 
|                                                                             |
|  ADVICE TO THIS USER RUNNING 'VASP/VAMP'   (HEAR YOUR MASTER'S VOICE ...):  |
|                                                                             |
|      You have a (more or less) 'large supercell' and for larger cells       |
|      it might be more efficient to use real space projection operators      |
|      So try LREAL= Auto  in the INCAR   file.                               |
|      Mind: If you want to do a very accurate calculations keep the          |
|      reciprocal projection scheme          (i.e. LREAL=.FALSE.)             |
|                                                                             |
 ----------------------------------------------------------------------------- 

 PAW_PBE O_s 07Sep2000                  :
 energy of atom  1       EATOM= -432.2909
 kinetic energy error for atom=    0.0182 (will be added to EATOM!!)
 PAW_PBE Mn 06Sep2000                   :
 energy of atom  2       EATOM= -416.8732
 kinetic energy error for atom=    0.0155 (will be added to EATOM!!)
 
 
 POSCAR: Mn12 O25  (P1) ~ POSCAR (VASP)          
  positions in direct lattice
  velocities in cartesian coordinates
  No initial velocities read in
 exchange correlation table for  LEXCH =        8
   RHO(1)=    0.500       N(1)  =     2000
   RHO(2)=  100.500       N(2)  =     4000
 


--------------------------------------------------------------------------------------------------------


 ion  position               nearest neighbor table
   1  0.000  0.500  0.348-  30 1.90  30 1.90  26 1.90
   2  0.000  0.500  0.566-  31 1.88  31 1.88  27 1.91
   3  0.000  0.500  0.784-  28 1.91
   4  0.500  0.797  0.148-  32 1.94  32 1.94  29 1.99  25 2.01
   5  0.500  0.203  0.148-  32 1.94  32 1.94  29 1.99  25 2.01
   6  0.500  0.805  0.391-  33 1.88  33 1.88  30 1.91
   7  0.500  0.195  0.391-  33 1.88  33 1.88  30 1.91
   8  0.500  0.805  0.609-  34 1.88  34 1.88  31 1.91
   9  0.500  0.195  0.609-  34 1.88  34 1.88  31 1.91
  10  0.000  0.500  0.214-  29 1.85  29 1.85  26 1.95
  11  0.000  0.500  0.434-  30 1.88  30 1.88  27 1.91
  12  0.000  0.500  0.651-  31 1.88  31 1.88  28 1.91
  13  0.000  0.000  0.233-  35 1.91  35 1.91  32 2.17
  14  0.000  0.000  0.458-  36 1.88  36 1.88  33 1.91
  15  0.000  0.000  0.675-  37 1.88  37 1.88  34 1.91
  16  0.500  0.304  0.280-  26 1.89  26 1.89  35 1.90
  17  0.500  0.696  0.280-  26 1.89  26 1.89  35 1.90
  18  0.500  0.305  0.500-  27 1.88  27 1.88  36 1.91
  19  0.500  0.695  0.500-  27 1.88  27 1.88  36 1.91
  20  0.500  0.305  0.717-  28 1.88  28 1.88  37 1.91
  21  0.500  0.695  0.717-  28 1.88  28 1.88  37 1.91
  22  0.000  0.000  0.322-  35 1.93  35 1.93  33 1.99
  23  0.000  0.000  0.542-  36 1.88  36 1.88  34 1.91
  24  0.000  0.000  0.760-  37 1.88  37 1.88
  25  0.500  0.500  0.121-  29 1.51   5 2.01   4 2.01
  26  0.000  0.500  0.282-  16 1.89  17 1.89  16 1.89  17 1.89   1 1.90  10 1.95
  27  0.000  0.500  0.500-  19 1.88  19 1.88  18 1.88  18 1.88   2 1.91  11 1.91
  28  0.000  0.500  0.717-  21 1.88  21 1.88  20 1.88  20 1.88   3 1.91  12 1.91
  29  0.500  0.500  0.173-  25 1.51  10 1.85  10 1.85   5 1.99   4 1.99
  30  0.500  0.500  0.391-  11 1.88  11 1.88   1 1.90   1 1.90   7 1.91   6 1.91
  31  0.500  0.500  0.609-   2 1.88   2 1.88  12 1.88  12 1.88   9 1.91   8 1.91
  32  0.000  0.000  0.158-   4 1.94   4 1.94   5 1.94   5 1.94  13 2.17
  33  0.000  0.000  0.391-   6 1.88   6 1.88   7 1.88   7 1.88  14 1.91  22 1.99
  34  0.000  0.000  0.609-   8 1.88   8 1.88   9 1.88   9 1.88  23 1.91  15 1.91
  35  0.500  0.000  0.277-  16 1.90  17 1.90  13 1.91  13 1.91  22 1.93  22 1.93
  36  0.500  0.000  0.500-  14 1.88  23 1.88  14 1.88  23 1.88  18 1.91  19 1.91
  37  0.500  0.000  0.717-  24 1.88  24 1.88  15 1.88  15 1.88  20 1.91  21 1.91
 
  LATTYP: Found a simple orthorhombic cell.
 ALAT       =     2.8699998900
 B/A-ratio  =     2.1779862019
 C/A-ratio  =    10.0182792969
  
  Lattice vectors:
  
 A1 = (   2.8699998900,   0.0000000000,   0.0000000000)
 A2 = (   0.0000000000,   6.2508201600,   0.0000000000)
 A3 = (   0.0000000000,   0.0000000000,  28.7524604800)


Analysis of symmetry for initial positions (statically):
=====================================================================
 Subroutine PRICEL returns:
 Original cell was already a primitive cell.
 

 Routine SETGRP: Setting up the symmetry group for a 
 simple orthorhombic supercell.


 Subroutine GETGRP returns: Found  4 space group operations
 (whereof  4 operations were pure point group operations)
 out of a pool of  8 trial point group operations.


The static configuration has the point symmetry C_2v.


Analysis of symmetry for dynamics (positions and initial velocities):
=====================================================================
 Subroutine PRICEL returns:
 Original cell was already a primitive cell.
 

 Routine SETGRP: Setting up the symmetry group for a 
 simple orthorhombic supercell.


 Subroutine GETGRP returns: Found  4 space group operations
 (whereof  4 operations were pure point group operations)
 out of a pool of  8 trial point group operations.


The dynamic configuration has the point symmetry C_2v.


Analysis of constrained symmetry for selective dynamics:
=====================================================================
 Subroutine PRICEL returns:
 Original cell was already a primitive cell.
 

 Routine SETGRP: Setting up the symmetry group for a 
 simple orthorhombic supercell.


 Subroutine GETGRP returns: Found  4 space group operations
 (whereof  4 operations were pure point group operations)
 out of a pool of  8 trial point group operations.


The constrained configuration has the point symmetry C_2v.


Analysis of magnetic symmetry:
=====================================================================

 Subroutine MAGSYM returns: Found  4 space group operations
 (whereof  4 operations were pure point group operations)
 out of a pool of  4 trial space group operations
 (whereof  4 operations were pure point group operations)
 and found also     1 'primitive' translations


The magnetic configuration has the point symmetry C_2v.


 irot  :   1
 --------------------------------------------------------------------
 isymop:   1   0   0
           0   1   0
           0   0   1

 gtrans:     0.0000000     0.0000000     0.0000000

 ptrans:     0.0000000     0.0000000     0.0000000
 rotmap:
 (   1->   1)  (   2->   2)  (   3->   3)  (   4->   4)  (   5->   5) 
 (   6->   6)  (   7->   7)  (   8->   8)  (   9->   9)  (  10->  10) 
 (  11->  11)  (  12->  12)  (  13->  13)  (  14->  14)  (  15->  15) 
 (  16->  16)  (  17->  17)  (  18->  18)  (  19->  19)  (  20->  20) 
 (  21->  21)  (  22->  22)  (  23->  23)  (  24->  24)  (  25->  25) 
 (  26->  26)  (  27->  27)  (  28->  28)  (  29->  29)  (  30->  30) 
 (  31->  31)  (  32->  32)  (  33->  33)  (  34->  34)  (  35->  35) 
 (  36->  36)  (  37->  37) 


 irot  :   2
 --------------------------------------------------------------------
 isymop:  -1   0   0
           0  -1   0
           0   0   1

 gtrans:     0.0000000     0.0000000     0.0000000

 ptrans:     0.0000000     0.0000000     0.0000000
 rotmap:
 (   1->   1)  (   2->   2)  (   3->   3)  (   4->   5)  (   5->   4) 
 (   6->   7)  (   7->   6)  (   8->   9)  (   9->   8)  (  10->  10) 
 (  11->  11)  (  12->  12)  (  13->  13)  (  14->  14)  (  15->  15) 
 (  16->  17)  (  17->  16)  (  18->  19)  (  19->  18)  (  20->  21) 
 (  21->  20)  (  22->  22)  (  23->  23)  (  24->  24)  (  25->  25) 
 (  26->  26)  (  27->  27)  (  28->  28)  (  29->  29)  (  30->  30) 
 (  31->  31)  (  32->  32)  (  33->  33)  (  34->  34)  (  35->  35) 
 (  36->  36)  (  37->  37) 


 irot  :   3
 --------------------------------------------------------------------
 isymop:   1   0   0
           0  -1   0
           0   0   1

 gtrans:     0.0000000     0.0000000     0.0000000

 ptrans:     0.0000000     0.0000000     0.0000000
 rotmap:
 (   1->   1)  (   2->   2)  (   3->   3)  (   4->   5)  (   5->   4) 
 (   6->   7)  (   7->   6)  (   8->   9)  (   9->   8)  (  10->  10) 
 (  11->  11)  (  12->  12)  (  13->  13)  (  14->  14)  (  15->  15) 
 (  16->  17)  (  17->  16)  (  18->  19)  (  19->  18)  (  20->  21) 
 (  21->  20)  (  22->  22)  (  23->  23)  (  24->  24)  (  25->  25) 
 (  26->  26)  (  27->  27)  (  28->  28)  (  29->  29)  (  30->  30) 
 (  31->  31)  (  32->  32)  (  33->  33)  (  34->  34)  (  35->  35) 
 (  36->  36)  (  37->  37) 


 irot  :   4
 --------------------------------------------------------------------
 isymop:  -1   0   0
           0   1   0
           0   0   1

 gtrans:     0.0000000     0.0000000     0.0000000

 ptrans:     0.0000000     0.0000000     0.0000000
 rotmap:
 (   1->   1)  (   2->   2)  (   3->   3)  (   4->   4)  (   5->   5) 
 (   6->   6)  (   7->   7)  (   8->   8)  (   9->   9)  (  10->  10) 
 (  11->  11)  (  12->  12)  (  13->  13)  (  14->  14)  (  15->  15) 
 (  16->  16)  (  17->  17)  (  18->  18)  (  19->  19)  (  20->  20) 
 (  21->  21)  (  22->  22)  (  23->  23)  (  24->  24)  (  25->  25) 
 (  26->  26)  (  27->  27)  (  28->  28)  (  29->  29)  (  30->  30) 
 (  31->  31)  (  32->  32)  (  33->  33)  (  34->  34)  (  35->  35) 
 (  36->  36)  (  37->  37) 
 
 
 KPOINTS: Automatic mesh                          

Automatic generation of k-mesh.
Space group operators:
 irot       det(A)        alpha          n_x          n_y          n_z        tau_x        tau_y        tau_z
    1     1.000000     0.000000     1.000000     0.000000     0.000000     0.000000     0.000000     0.000000
    2     1.000000   179.999999     0.000000     0.000000     1.000000     0.000000     0.000000     0.000000
    3    -1.000000   180.000000     0.000000     1.000000     0.000000     0.000000     0.000000     0.000000
    4    -1.000000   179.999999     1.000000     0.000000     0.000000     0.000000     0.000000     0.000000
 
 Subroutine IBZKPT returns following result:
 ===========================================
 
 Found      2 irreducible k-points:
 
 Following reciprocal coordinates:
            Coordinates               Weight
  0.000000  0.000000  0.000000      1.000000
  0.500000  0.000000  0.000000      1.000000
 
 Following cartesian coordinates:
            Coordinates               Weight
  0.000000  0.000000  0.000000      1.000000
  0.174216  0.000000  0.000000      1.000000
 


--------------------------------------------------------------------------------------------------------




 Dimension of arrays:
   k-points           NKPTS =      2   k-points in BZ     NKDIM =      2   number of bands    NBANDS=    144
   number of dos      NEDOS =    301   number of ions     NIONS =     37
   non local maximal  LDIM  =      6   non local SUM 2l+1 LMDIM =     18
   total plane-waves  NPLWV =  58800
   max r-space proj   IRMAX =      1   max aug-charges    IRDMAX=   4390
   dimension x,y,z NGX =    14 NGY =   30 NGZ =  140
   dimension x,y,z NGXF=    28 NGYF=   60 NGZF=  280
   support grid    NGXF=    28 NGYF=   60 NGZF=  280
   ions per type =              25  12
 NGX,Y,Z   is equivalent  to a cutoff of   8.11,  7.98,  8.09 a.u.
 NGXF,Y,Z  is equivalent  to a cutoff of  16.22, 15.96, 16.19 a.u.


 I would recommend the setting:
   dimension x,y,z NGX =    13 NGY =   29 NGZ =  135
 SYSTEM =  Mn12 O25  (P1) ~ POSCAR (VASP)          
 POSCAR =  Mn12 O25  (P1) ~ POSCAR (VASP)          

 Startparameter for this run:
   NWRITE =      1    write-flag & timer
   PREC   = normal    normal or accurate (medium, high low for compatibility)
   ISTART =      0    job   : 0-new  1-cont  2-samecut
   ICHARG =      2    charge: 1-file 2-atom 10-const
   ISPIN  =      2    spin polarized calculation?
   LNONCOLLINEAR =      F non collinear calculations
   LSORBIT =      F    spin-orbit coupling
   INIWAV =      1    electr: 0-lowe 1-rand  2-diag
   LASPH  =      F    aspherical Exc in radial PAW
   METAGGA=      F    non-selfconsistent MetaGGA calc.

 Electronic Relaxation 1
   ENCUT  =  367.7 eV  27.02 Ry    5.20 a.u.   4.49  9.77 44.95*2*pi/ulx,y,z
   ENINI  =  367.7     initial cutoff
   ENAUG  =  500.7 eV  augmentation charge cutoff
   NELM   =     60;   NELMIN=  2; NELMDL= -5     # of ELM steps 
   EDIFF  = 0.1E-03   stopping-criterion for ELM
   LREAL  =      F    real-space projection
   NLSPLINE    = F    spline interpolate recip. space projectors
   LCOMPAT=      F    compatible to vasp.4.4
   GGA_COMPAT  = T    GGA compatible to vasp.4.4-vasp.4.6
   LMAXPAW     = -100 max onsite density
   LMAXMIX     =    4 max onsite mixed and CHGCAR
   VOSKOWN=      1    Vosko Wilk Nusair interpolation
   ROPT   =    0.00000   0.00000
 Ionic relaxation
   EDIFFG = 0.1E-02   stopping-criterion for IOM
   NSW    =    100    number of steps for IOM
   NBLOCK =      1;   KBLOCK =    100    inner block; outer block 
   IBRION =      2    ionic relax: 0-MD 1-quasi-New 2-CG
   NFREE  =      1    steps in history (QN), initial steepest desc. (CG)
   ISIF   =      2    stress and relaxation
   IWAVPR =     11    prediction:  0-non 1-charg 2-wave 3-comb
   ISYM   =      2    0-nonsym 1-usesym 2-fastsym
   LCORR  =      T    Harris-Foulkes like correction to forces

   POTIM  = 0.5000    time-step for ionic-motion
   TEIN   =    0.0    initial temperature
   TEBEG  =    0.0;   TEEND  =   0.0 temperature during run
   SMASS  =  -3.00    Nose mass-parameter (am)
   estimated Nose-frequenzy (Omega)   =  0.10E-29 period in steps =****** mass=  -0.188E-27a.u.
   SCALEE = 1.0000    scale energy and forces
   NPACO  =    256;   APACO  = 16.0  distance and # of slots for P.C.
   PSTRESS=    0.0 pullay stress

  Mass of Ions in am
   POMASS =  16.00 54.94
  Ionic Valenz
   ZVAL   =   6.00  7.00
  Atomic Wigner-Seitz radii
   RWIGS  =  -1.00 -1.00
  virtual crystal weights 
   VCA    =   1.00  1.00
   NELECT =     234.0000    total number of electrons
   NUPDOWN=      -1.0000    fix difference up-down

 DOS related values:
   EMIN   =  10.00;   EMAX   =-10.00  energy-range for DOS
   EFERMI =   0.00
   ISMEAR =     1;   SIGMA  =   0.20  broadening in eV -4-tet -1-fermi 0-gaus

 Electronic relaxation 2 (details)
   IALGO  =     38    algorithm
   LDIAG  =      T    sub-space diagonalisation (order eigenvalues)
   LSUBROT=      T    optimize rotation matrix (better conditioning)
   TURBO    =      0    0=normal 1=particle mesh
   IRESTART =      0    0=no restart 2=restart with 2 vectors
   NREBOOT  =      0    no. of reboots
   NMIN     =      0    reboot dimension
   EREF     =   0.00    reference energy to select bands
   IMIX   =      4    mixing-type and parameters
     AMIX     =   0.40;   BMIX     =  1.00
     AMIX_MAG =   1.60;   BMIX_MAG =  1.00
     AMIN     =   0.10
     WC   =   100.;   INIMIX=   1;  MIXPRE=   1;  MAXMIX= -45

 Intra band minimization:
   WEIMIN = 0.0010     energy-eigenvalue tresh-hold
   EBREAK =  0.17E-06  absolut break condition
   DEPER  =   0.30     relativ break condition  

   TIME   =   0.40     timestep for ELM

  volume/ion in A,a.u.               =      13.94        94.08
  Fermi-wavevector in a.u.,A,eV,Ry     =   1.257908  2.377101 21.528935  1.582332
  Thomas-Fermi vector in A             =   2.391544
 
 Write flags
   LWAVE  =      F    write WAVECAR
   LCHARG =      F    write CHGCAR
   LVTOT  =      F    write LOCPOT, total local potential
   LVHAR  =      F    write LOCPOT, Hartree potential only
   LELF   =      F    write electronic localiz. function (ELF)
   LORBIT =      0    0 simple, 1 ext, 2 COOP (PROOUT)


 Dipole corrections
   LMONO  =      F    monopole corrections only (constant potential shift)
   LDIPOL =      F    correct potential (dipole corrections)
   IDIPOL =      0    1-x, 2-y, 3-z, 4-all directions 
   EPSILON=  1.0000000 bulk dielectric constant

 LDA+U is selected, type is set to LDAUTYPE =  2
   angular momentum for each species LDAUL =    -1    2
   U (eV)           for each species LDAUU =   0.0  3.9
   J (eV)           for each species LDAUJ =   0.0  0.0
 Exchange correlation treatment:
   GGA     =    --    GGA type
   LEXCH   =     8    internal setting for exchange type
   VOSKOWN=      1    Vosko Wilk Nusair interpolation
   LHFCALC =     F    Hartree Fock is set to
   LHFONE  =     F    Hartree Fock one center treatment
   AEXX    =    0.0000 exact exchange contribution

 Linear response parameters
   LEPSILON=     F    determine dielectric tensor
   LRPA    =     F    only Hartree local field effects (RPA)
   LNABLA  =     F    use nabla operator in PAW spheres
   LVEL    =     F    velocity operator in full k-point grid
   LINTERFAST=   F  fast interpolation
   KINTER  =     0    interpolate to denser k-point grid
   CSHIFT  =0.1000    complex shift for real part using Kramers Kronig
   OMEGAMAX=  -1.0    maximum frequency
   DEG_THRESHOLD= 0.2000000E-02 threshold for treating states as degnerate
   RTIME   =    0.100 relaxation time in fs

 Orbital magnetization related:
   ORBITALMAG=     F  switch on orbital magnetization
   LCHIMAG   =     F  perturbation theory with respect to B field
   DQ        =  0.001000  dq finite difference perturbation B field



--------------------------------------------------------------------------------------------------------


 conjugate gradient relaxation of ions
   using selective dynamics as specified on POSCAR
 charge density and potential will be updated during run
 spin polarized calculation
 Variant of blocked Davidson
 Davidson routine will perform the subspace rotation
 perform sub-space diagonalisation
    after iterative eigenvector-optimisation
 modified Broyden-mixing scheme, WC =      100.0
 initial mixing is a Kerker type mixing with AMIX =  0.4000 and BMIX =      1.0000
 Hartree-type preconditioning will be used
 using additional bands           27
 reciprocal scheme for non local part
 use partial core corrections
 calculate Harris-corrections to forces 
   (improved forces if not selfconsistent)
 use gradient corrections 
 use of overlap-Matrix (Vanderbilt PP)
 Methfessel and Paxton  Order N= 1 SIGMA  =   0.20


--------------------------------------------------------------------------------------------------------


  energy-cutoff  :      367.69
  volume of cell :      515.81
      direct lattice vectors                 reciprocal lattice vectors
     2.869999890  0.000000000  0.000000000     0.348432069  0.000000000  0.000000000
     0.000000000  6.250820160  0.000000000     0.000000000  0.159979007  0.000000000
     0.000000000  0.000000000 28.752460480     0.000000000  0.000000000  0.034779632

  length of vectors
     2.869999890  6.250820160 28.752460480     0.348432069  0.159979007  0.034779632


 
 k-points in units of 2pi/SCALE and weight: Automatic mesh                          
   0.00000000  0.00000000  0.00000000       0.500
   0.17421603  0.00000000  0.00000000       0.500
 
 k-points in reciprocal lattice and weights: Automatic mesh                          
   0.00000000  0.00000000  0.00000000       0.500
   0.50000000  0.00000000  0.00000000       0.500
 
 position of ions in fractional coordinates (direct lattice) 
   0.00000000  0.50000000  0.34799520
   0.00000000  0.50000000  0.56625954
   0.00000000  0.50000000  0.78366076
   0.50000000  0.79669797  0.14830040
   0.50000000  0.20330204  0.14830040
   0.50000000  0.80478003  0.39129939
   0.50000000  0.19521999  0.39129939
   0.50000000  0.80478003  0.60870061
   0.50000000  0.19521999  0.60870061
   0.00000000  0.50000000  0.21399965
   0.00000000  0.50000000  0.43374043
   0.00000000  0.50000000  0.65114169
   0.00000000  0.00000000  0.23298401
   0.00000000  0.00000000  0.45755892
   0.00000000  0.00000000  0.67496015
   0.50000000  0.30358565  0.27973219
   0.50000000  0.69641435  0.27973219
   0.50000000  0.30478001  0.50000000
   0.50000000  0.69521997  0.50000000
   0.50000000  0.30478001  0.71740123
   0.50000000  0.69521997  0.71740123
   0.00000000  0.00000000  0.32210182
   0.00000000  0.00000000  0.54244108
   0.00000000  0.00000000  0.75984230
   0.50000000  0.50000000  0.12100010
   0.00000000  0.50000000  0.28178492
   0.00000000  0.50000000  0.50000000
   0.00000000  0.50000000  0.71740123
   0.50000000  0.50000000  0.17349385
   0.50000000  0.50000000  0.39129939
   0.50000000  0.50000000  0.60870061
   0.00000000  0.00000000  0.15751265
   0.00000000  0.00000000  0.39129939
   0.00000000  0.00000000  0.60870061
   0.50000000  0.00000000  0.27706799
   0.50000000  0.00000000  0.50000000
   0.50000000  0.00000000  0.71740123
 
 position of ions in cartesian coordinates  (Angst):
   0.00000000  3.12541008 10.00571824
   0.00000000  3.12541008 16.28135505
   0.00000000  3.12541008 22.53217503
   1.43499994  4.98001573  4.26400139
   1.43499994  1.27080449  4.26400139
   1.43499994  5.03053524 11.25082025
   1.43499994  1.22028505 11.25082025
   1.43499994  5.03053524 17.50164023
   1.43499994  1.22028505 17.50164023
   0.00000000  3.12541008  6.15301648
   0.00000000  3.12541008 12.47110457
   0.00000000  3.12541008 18.72192571
   0.00000000  0.00000000  6.69886354
   0.00000000  0.00000000 13.15594476
   0.00000000  0.00000000 19.40676504
   1.43499994  1.89765930  8.04298874
   1.43499994  4.35316086  8.04298874
   1.43499994  1.90512503 14.37623024
   1.43499994  4.34569500 14.37623024
   1.43499994  1.90512503 20.62705051
   1.43499994  4.34569500 20.62705051
   0.00000000  0.00000000  9.26121985
   0.00000000  0.00000000 15.59651572
   0.00000000  0.00000000 21.84733570
   1.43499994  3.12541008  3.47905059
   0.00000000  3.12541008  8.10200978
   0.00000000  3.12541008 14.37623024
   0.00000000  3.12541008 20.62705051
   1.43499994  3.12541008  4.98837507
   1.43499994  3.12541008 11.25082025
   1.43499994  3.12541008 17.50164023
   0.00000000  0.00000000  4.52887624
   0.00000000  0.00000000 11.25082025
   0.00000000  0.00000000 17.50164023
   1.43499994  0.00000000  7.96638643
   1.43499994  0.00000000 14.37623024
   1.43499994  0.00000000 20.62705051
 


--------------------------------------------------------------------------------------------------------


 k-point  1 :   0.0000 0.0000 0.0000  plane waves:    8319
 k-point  2 :   0.5000 0.0000 0.0000  plane waves:    8204

 maximum and minimum number of plane-waves per node :      1052     1021

 maximum number of plane-waves:      8319
 maximum index in each direction: 
   IXMAX=    4   IYMAX=    9   IZMAX=   44
   IXMIN=   -4   IYMIN=   -9   IZMIN=  -44

 WARNING: aliasing errors must be expected set NGX to  18 to avoid them
 WARNING: aliasing errors must be expected set NGY to  38 to avoid them
 WARNING: aliasing errors must be expected set NGZ to 178 to avoid them
 aliasing errors are usually negligible using standard VASP settings
 and one can safely disregard these warnings

 parallel 3D FFT for wavefunctions:
    minimum data exchange during FFTs selected (reduces bandwidth)
 parallel 3D FFT for charge:
    minimum data exchange during FFTs selected (reduces bandwidth)


 total amount of memory used by VASP on root node    35401. kBytes
========================================================================

   base      :      30000. kBytes
   nonl-proj :       1196. kBytes
   fftplans  :        772. kBytes
   grid      :       2025. kBytes
   one-center:        155. kBytes
   wavefun   :       1253. kBytes
 
 Broyden mixing: mesh for mixing (old mesh)
   NGX =  9   NGY = 19   NGZ = 89
  (NGX  = 28   NGY  = 60   NGZ  =280)
  gives a total of  15219 points

 initial charge density was supplied:
 charge density of overlapping atoms calculated
 number of electron     234.0000000 magnetization       0.0000000
 keeping initial charge density in first step


--------------------------------------------------------------------------------------------------------


 Maximum index for augmentation-charges          308 (set IRDMAX)


--------------------------------------------------------------------------------------------------------


 First call to EWALD:  gamma=   0.221
 Maximum number of real-space cells 7x 3x 1
 Maximum number of reciprocal cells 1x 2x 9

 FEWALD executed in parallel
    FEWALD:  cpu time    0.00: real time    0.00


----------------------------------------- Iteration    1(   1)  ---------------------------------------


    POTLOK:  cpu time    0.04: real time    0.04
    SETDIJ:  cpu time    0.01: real time    0.01
     EDDAV:  cpu time    0.49: real time    0.49
       DOS:  cpu time    0.00: real time    0.00
    --------------------------------------------
      LOOP:  cpu time    0.53: real time    0.59

 eigenvalue-minimisations  :  1168
 total energy-change (2. order) : 0.3050935E+04  (-0.8385674E+04)
 number of electron     234.0000000 magnetization      -0.0000000
 augmentation part      234.0000000 magnetization      -0.0000000

 Free energy of the ion-electron system (eV)
  ---------------------------------------------------
  alpha Z        PSCENC =       634.97918720
  Ewald energy   TEWEN  =     54695.28685181
  -1/2 Hartree   DENC   =    -70506.45125977
  -exchange  EXHF       =         0.00000000
  -V(xc)+E(xc)   XCENC  =       561.18018878
  PAW double counting   =     11199.31591812   -11039.47730748
  entropy T*S    EENTRO =        -0.00346611
  eigenvalues    EBANDS =      1696.99377552
  atomic energy  EATOM  =     15809.11153208
  ---------------------------------------------------
  free energy    TOTEN  =      3050.93542013 eV

  energy without entropy =     3050.93888624  energy(sigma->0) =     3050.93657550


--------------------------------------------------------------------------------------------------------




----------------------------------------- Iteration    1(   2)  ---------------------------------------


     EDDAV:  cpu time    0.48: real time    0.48
       DOS:  cpu time    0.00: real time    0.00
    --------------------------------------------
      LOOP:  cpu time    0.48: real time    0.57

 eigenvalue-minimisations  :  1152
 total energy-change (2. order) :-0.2704329E+04  (-0.2575709E+04)
 number of electron     234.0000000 magnetization      -0.0000000
 augmentation part      234.0000000 magnetization      -0.0000000

 Free energy of the ion-electron system (eV)
  ---------------------------------------------------
  alpha Z        PSCENC =       634.97918720
  Ewald energy   TEWEN  =     54695.28685181
  -1/2 Hartree   DENC   =    -70506.45125977
  -exchange  EXHF       =         0.00000000
  -V(xc)+E(xc)   XCENC  =       561.18018878
  PAW double counting   =     11199.31591812   -11039.47730748
  entropy T*S    EENTRO =         0.00488892
  eigenvalues    EBANDS =     -1007.34382692
  atomic energy  EATOM  =     15809.11153208
  ---------------------------------------------------
  free energy    TOTEN  =       346.60617273 eV

  energy without entropy =      346.60128381  energy(sigma->0) =      346.60454309


--------------------------------------------------------------------------------------------------------




----------------------------------------- Iteration    1(   3)  ---------------------------------------


     EDDAV:  cpu time    0.62: real time    0.62
       DOS:  cpu time    0.00: real time    0.00
    --------------------------------------------
      LOOP:  cpu time    0.62: real time    0.72

 eigenvalue-minimisations  :  1648
 total energy-change (2. order) :-0.6301541E+03  (-0.6016777E+03)
 number of electron     234.0000000 magnetization      -0.0000000
 augmentation part      234.0000000 magnetization      -0.0000000

 Free energy of the ion-electron system (eV)
  ---------------------------------------------------
  alpha Z        PSCENC =       634.97918720
  Ewald energy   TEWEN  =     54695.28685181
  -1/2 Hartree   DENC   =    -70506.45125977
  -exchange  EXHF       =         0.00000000
  -V(xc)+E(xc)   XCENC  =       561.18018878
  PAW double counting   =     11199.31591812   -11039.47730748
  entropy T*S    EENTRO =         0.00256262
  eigenvalues    EBANDS =     -1637.49562101
  atomic energy  EATOM  =     15809.11153208
  ---------------------------------------------------
  free energy    TOTEN  =      -283.54794767 eV

  energy without entropy =     -283.55051028  energy(sigma->0) =     -283.54880187


--------------------------------------------------------------------------------------------------------




----------------------------------------- Iteration    1(   4)  ---------------------------------------


     EDDAV:  cpu time    0.67: real time    0.67
       DOS:  cpu time    0.00: real time    0.00
    --------------------------------------------
      LOOP:  cpu time    0.67: real time    0.75

 eigenvalue-minimisations  :  1824
 total energy-change (2. order) :-0.6202579E+02  (-0.6066418E+02)
 number of electron     234.0000000 magnetization      -0.0000000
 augmentation part      234.0000000 magnetization      -0.0000000

 Free energy of the ion-electron system (eV)
  ---------------------------------------------------
  alpha Z        PSCENC =       634.97918720
  Ewald energy   TEWEN  =     54695.28685181
  -1/2 Hartree   DENC   =    -70506.45125977
  -exchange  EXHF       =         0.00000000
  -V(xc)+E(xc)   XCENC  =       561.18018878
  PAW double counting   =     11199.31591812   -11039.47730748
  entropy T*S    EENTRO =        -0.02376269
  eigenvalues    EBANDS =     -1699.49508673
  atomic energy  EATOM  =     15809.11153208
  ---------------------------------------------------
  free energy    TOTEN  =      -345.57373870 eV

  energy without entropy =     -345.54997601  energy(sigma->0) =     -345.56581780


--------------------------------------------------------------------------------------------------------




----------------------------------------- Iteration    1(   5)  ---------------------------------------


     EDDAV:  cpu time    0.65: real time    0.65
       DOS:  cpu time    0.00: real time    0.00
    CHARGE:  cpu time    0.03: real time    0.03
    MIXING:  cpu time    0.00: real time    0.00
    --------------------------------------------
      LOOP:  cpu time    0.68: real time    0.77

 eigenvalue-minimisations  :  1768
 total energy-change (2. order) :-0.1756291E+01  (-0.1735609E+01)
 number of electron     233.9999923 magnetization      -0.0634830
 augmentation part       65.8042961 magnetization       0.2454486

 Broyden mixing:
  rms(total) = 0.69052E+01    rms(broyden)= 0.68974E+01
  rms(prec ) = 0.72836E+01
  weight for this iteration     100.00

 Free energy of the ion-electron system (eV)
  ---------------------------------------------------
  alpha Z        PSCENC =       634.97918720
  Ewald energy   TEWEN  =     54695.28685181
  -1/2 Hartree   DENC   =    -70506.45125977
  -exchange  EXHF       =         0.00000000
  -V(xc)+E(xc)   XCENC  =       561.18018878
  PAW double counting   =     11199.31591812   -11039.47730748
  entropy T*S    EENTRO =        -0.03159009
  eigenvalues    EBANDS =     -1701.24354984
  atomic energy  EATOM  =     15809.11153208
  ---------------------------------------------------
  free energy    TOTEN  =      -347.33002921 eV

  energy without entropy =     -347.29843912  energy(sigma->0) =     -347.31949918


--------------------------------------------------------------------------------------------------------




----------------------------------------- Iteration    1(   6)  ---------------------------------------


    POTLOK:  cpu time    0.04: real time    0.04
    SETDIJ:  cpu time    0.01: real time    0.01
     EDDAV:  cpu time    0.73: real time    0.73
       DOS:  cpu time    0.00: real time    0.00
    CHARGE:  cpu time    0.03: real time    0.03
    MIXING:  cpu time    0.00: real time    0.00
    --------------------------------------------
      LOOP:  cpu time    0.80: real time    0.89

 eigenvalue-minimisations  :  2016
 total energy-change (2. order) :-0.6930131E+02  (-0.1828013E+03)
 number of electron     233.9999363 magnetization      -0.0814862
 augmentation part       83.8603000 magnetization       0.3137510

 Broyden mixing:
  rms(total) = 0.12186E+02    rms(broyden)= 0.12182E+02
  rms(prec ) = 0.17507E+02
  weight for this iteration     100.00

 eigenvalues of (default mixing * dielectric matrix)
  average eigenvalue GAMMA=   0.3266
  0.3266

 Free energy of the ion-electron system (eV)
  ---------------------------------------------------
  alpha Z        PSCENC =       634.97918720
  Ewald energy   TEWEN  =     54695.28685181
  -1/2 Hartree   DENC   =    -70424.26272969
  -exchange  EXHF       =         0.00000000
  -V(xc)+E(xc)   XCENC  =       587.77614140
  PAW double counting   =     12178.31487077   -12011.01997268
  entropy T*S    EENTRO =         0.01961967
  eigenvalues    EBANDS =     -1886.83684469
  atomic energy  EATOM  =     15809.11153208
  ---------------------------------------------------
  free energy    TOTEN  =      -416.63134413 eV

  energy without entropy =     -416.65096381  energy(sigma->0) =     -416.63788402


--------------------------------------------------------------------------------------------------------




----------------------------------------- Iteration    1(   7)  ---------------------------------------


    POTLOK:  cpu time    0.04: real time    0.04
    SETDIJ:  cpu time    0.01: real time    0.01
     EDDAV:  cpu time    0.79: real time    0.79
       DOS:  cpu time    0.00: real time    0.00
    CHARGE:  cpu time    0.03: real time    0.03
    MIXING:  cpu time    0.00: real time    0.00
    --------------------------------------------
      LOOP:  cpu time    0.87: real time    1.21

 eigenvalue-minimisations  :  2232
 total energy-change (2. order) :-0.4697707E+03  (-0.6808770E+03)
 number of electron     233.9999512 magnetization      -0.0897614
 augmentation part       73.6379022 magnetization      -0.1105524

 Broyden mixing:
  rms(total) = 0.15285E+02    rms(broyden)= 0.15281E+02
  rms(prec ) = 0.30130E+02
  weight for this iteration     100.00

 eigenvalues of (default mixing * dielectric matrix)
  average eigenvalue GAMMA=   0.1984
  0.3290  0.0678

 Free energy of the ion-electron system (eV)
  ---------------------------------------------------
  alpha Z        PSCENC =       634.97918720
  Ewald energy   TEWEN  =     54695.28685181
  -1/2 Hartree   DENC   =    -70872.23294762
  -exchange  EXHF       =         0.00000000
  -V(xc)+E(xc)   XCENC  =       574.76079569
  PAW double counting   =     12245.73424254   -12107.77087701
  entropy T*S    EENTRO =        -0.00111105
  eigenvalues    EBANDS =     -1866.26975130
  atomic energy  EATOM  =     15809.11153208
  ---------------------------------------------------
  free energy    TOTEN  =      -886.40207767 eV

  energy without entropy =     -886.40096661  energy(sigma->0) =     -886.40170732


--------------------------------------------------------------------------------------------------------




----------------------------------------- Iteration    1(   8)  ---------------------------------------


    POTLOK:  cpu time    0.04: real time    0.04
    SETDIJ:  cpu time    0.01: real time    0.01
     EDDAV:  cpu time    0.70: real time    0.70
       DOS:  cpu time    0.00: real time    0.00
    CHARGE:  cpu time    0.03: real time    0.03
    MIXING:  cpu time    0.00: real time    0.00
    --------------------------------------------
      LOOP:  cpu time    0.77: real time    0.86

 eigenvalue-minimisations  :  1848
 total energy-change (2. order) : 0.5939096E+03  (-0.4094842E+03)
 number of electron     233.9999623 magnetization      -0.0878428
 augmentation part       72.7712071 magnetization      -0.4198791

 Broyden mixing:
  rms(total) = 0.97012E+01    rms(broyden)= 0.96983E+01
  rms(prec ) = 0.14582E+02
  weight for this iteration     100.00

 eigenvalues of (default mixing * dielectric matrix)
  average eigenvalue GAMMA=   0.1733
  0.3145  0.1027  0.1027

 Free energy of the ion-electron system (eV)
  ---------------------------------------------------
  alpha Z        PSCENC =       634.97918720
  Ewald energy   TEWEN  =     54695.28685181
  -1/2 Hartree   DENC   =    -70907.45284352
  -exchange  EXHF       =         0.00000000
  -V(xc)+E(xc)   XCENC  =       565.70342248
  PAW double counting   =     12263.79351601   -12143.45511419
  entropy T*S    EENTRO =        -0.02134681
  eigenvalues    EBANDS =     -1210.43771016
  atomic energy  EATOM  =     15809.11153208
  ---------------------------------------------------
  free energy    TOTEN  =      -292.49250509 eV

  energy without entropy =     -292.47115829  energy(sigma->0) =     -292.48538949


--------------------------------------------------------------------------------------------------------




----------------------------------------- Iteration    1(   9)  ---------------------------------------


    POTLOK:  cpu time    0.04: real time    0.04
    SETDIJ:  cpu time    0.01: real time    0.01
     EDDAV:  cpu time    0.67: real time    0.67
       DOS:  cpu time    0.00: real time    0.00
    CHARGE:  cpu time    0.03: real time    0.03
    MIXING:  cpu time    0.00: real time    0.00
    --------------------------------------------
      LOOP:  cpu time    0.75: real time    0.83

 eigenvalue-minimisations  :  1848
 total energy-change (2. order) : 0.4811559E+02  (-0.8729122E+02)
 number of electron     233.9999803 magnetization      -0.1429117
 augmentation part       66.1477055 magnetization       0.4949355

 Broyden mixing:
  rms(total) = 0.38356E+01    rms(broyden)= 0.38273E+01
  rms(prec ) = 0.43825E+01
  weight for this iteration     100.00

 eigenvalues of (default mixing * dielectric matrix)
  average eigenvalue GAMMA=   0.2664
  0.6484  0.2250  0.0961  0.0961

 Free energy of the ion-electron system (eV)
  ---------------------------------------------------
  alpha Z        PSCENC =       634.97918720
  Ewald energy   TEWEN  =     54695.28685181
  -1/2 Hartree   DENC   =    -70604.96061499
  -exchange  EXHF       =         0.00000000
  -V(xc)+E(xc)   XCENC  =       564.08911723
  PAW double counting   =     12290.17536689   -12173.97463497
  entropy T*S    EENTRO =        -0.02895579
  eigenvalues    EBANDS =     -1459.05476272
  atomic energy  EATOM  =     15809.11153208
  ---------------------------------------------------
  free energy    TOTEN  =      -244.37691327 eV

  energy without entropy =     -244.34795748  energy(sigma->0) =     -244.36726134


--------------------------------------------------------------------------------------------------------




----------------------------------------- Iteration    1(  10)  ---------------------------------------


    POTLOK:  cpu time    0.04: real time    0.04
    SETDIJ:  cpu time    0.01: real time    0.01
     EDDAV:  cpu time    0.68: real time    0.68
       DOS:  cpu time    0.00: real time    0.00
    CHARGE:  cpu time    0.03: real time    0.03
    MIXING:  cpu time    0.00: real time    0.00
    --------------------------------------------
      LOOP:  cpu time    0.76: real time    0.82

 eigenvalue-minimisations  :  1872
 total energy-change (2. order) :-0.8397707E+01  (-0.1844961E+02)
 number of electron     233.9999809 magnetization      -0.1942735
 augmentation part       66.7195024 magnetization       0.7563454

 Broyden mixing:
  rms(total) = 0.37514E+01    rms(broyden)= 0.37481E+01
  rms(prec ) = 0.42545E+01
  weight for this iteration     100.00

 eigenvalues of (default mixing * dielectric matrix)
  average eigenvalue GAMMA=   0.2630
  0.7255  0.1971  0.1971  0.0976  0.0976

 Free energy of the ion-electron system (eV)
  ---------------------------------------------------
  alpha Z        PSCENC =       634.97918720
  Ewald energy   TEWEN  =     54695.28685181
  -1/2 Hartree   DENC   =    -70612.33993564
  -exchange  EXHF       =         0.00000000
  -V(xc)+E(xc)   XCENC  =       565.90460884
  PAW double counting   =     12425.18155752   -12309.72685836
  entropy T*S    EENTRO =        -0.01627261
  eigenvalues    EBANDS =     -1461.15529084
  atomic energy  EATOM  =     15809.11153208
  ---------------------------------------------------
  free energy    TOTEN  =      -252.77462000 eV

  energy without entropy =     -252.75834738  energy(sigma->0) =     -252.76919579


--------------------------------------------------------------------------------------------------------




----------------------------------------- Iteration    1(  11)  ---------------------------------------


    POTLOK:  cpu time    0.04: real time    0.04
    SETDIJ:  cpu time    0.01: real time    0.01
     EDDAV:  cpu time    0.68: real time    0.68
       DOS:  cpu time    0.00: real time    0.00
    CHARGE:  cpu time    0.03: real time    0.03
    MIXING:  cpu time    0.00: real time    0.00
    --------------------------------------------
      LOOP:  cpu time    0.75: real time    0.85

 eigenvalue-minimisations  :  1840
 total energy-change (2. order) : 0.2845552E+01  (-0.6477429E+01)
 number of electron     233.9999802 magnetization      -0.2473073
 augmentation part       66.8887542 magnetization       1.1723680

 Broyden mixing:
  rms(total) = 0.29791E+01    rms(broyden)= 0.29762E+01
  rms(prec ) = 0.32932E+01
  weight for this iteration     100.00

 eigenvalues of (default mixing * dielectric matrix)
  average eigenvalue GAMMA=   0.2561
  0.6389  0.2824  0.2824  0.0939  0.0939  0.1451

 Free energy of the ion-electron system (eV)
  ---------------------------------------------------
  alpha Z        PSCENC =       634.97918720
  Ewald energy   TEWEN  =     54695.28685181
  -1/2 Hartree   DENC   =    -70584.10095956
  -exchange  EXHF       =         0.00000000
  -V(xc)+E(xc)   XCENC  =       567.64268617
  PAW double counting   =     12507.62557378   -12391.44498831
  entropy T*S    EENTRO =        -0.02205289
  eigenvalues    EBANDS =     -1489.00689790
  atomic energy  EATOM  =     15809.11153208
  ---------------------------------------------------
  free energy    TOTEN  =      -249.92906762 eV

  energy without entropy =     -249.90701473  energy(sigma->0) =     -249.92171666


--------------------------------------------------------------------------------------------------------




----------------------------------------- Iteration    1(  12)  ---------------------------------------


    POTLOK:  cpu time    0.04: real time    0.04
    SETDIJ:  cpu time    0.01: real time    0.01
     EDDAV:  cpu time    0.70: real time    0.70
       DOS:  cpu time    0.00: real time    0.00
    CHARGE:  cpu time    0.03: real time    0.03
    MIXING:  cpu time    0.00: real time    0.00
    --------------------------------------------
      LOOP:  cpu time    0.78: real time    0.84

 eigenvalue-minimisations  :  1936
 total energy-change (2. order) : 0.9521587E+00  (-0.7438320E+00)
 number of electron     233.9999827 magnetization      -0.2282564
 augmentation part       66.8388045 magnetization       0.1564740

 Broyden mixing:
  rms(total) = 0.24520E+01    rms(broyden)= 0.24515E+01
  rms(prec ) = 0.26365E+01
  weight for this iteration     100.00

 eigenvalues of (default mixing * dielectric matrix)
  average eigenvalue GAMMA=   0.2832
  0.6035  0.4252  0.4252  0.0950  0.0950  0.1693  0.1693

 Free energy of the ion-electron system (eV)
  ---------------------------------------------------
  alpha Z        PSCENC =       634.97918720
  Ewald energy   TEWEN  =     54695.28685181
  -1/2 Hartree   DENC   =    -70596.55404609
  -exchange  EXHF       =         0.00000000
  -V(xc)+E(xc)   XCENC  =       569.01107369
  PAW double counting   =     12545.29760104   -12428.30705607
  entropy T*S    EENTRO =        -0.02750763
  eigenvalues    EBANDS =     -1477.77454494
  atomic energy  EATOM  =     15809.11153208
  ---------------------------------------------------
  free energy    TOTEN  =      -248.97690891 eV

  energy without entropy =     -248.94940129  energy(sigma->0) =     -248.96773971


--------------------------------------------------------------------------------------------------------




----------------------------------------- Iteration    1(  13)  ---------------------------------------


    POTLOK:  cpu time    0.04: real time    0.04
    SETDIJ:  cpu time    0.01: real time    0.01
     EDDAV:  cpu time    0.76: real time    0.76
       DOS:  cpu time    0.00: real time    0.00
    CHARGE:  cpu time    0.03: real time    0.03
    MIXING:  cpu time    0.00: real time    0.00
    --------------------------------------------
      LOOP:  cpu time    0.83: real time    0.89

 eigenvalue-minimisations  :  2112
 total energy-change (2. order) :-0.1170512E+01  (-0.4343004E+00)
 number of electron     233.9999815 magnetization      -0.2006583
 augmentation part       67.1309346 magnetization      -0.0042746

 Broyden mixing:
  rms(total) = 0.21421E+01    rms(broyden)= 0.21416E+01
  rms(prec ) = 0.23302E+01
  weight for this iteration     100.00

 eigenvalues of (default mixing * dielectric matrix)
  average eigenvalue GAMMA=   0.3135
  0.5485  0.5485  0.5798  0.2470  0.2470  0.0951  0.0951  0.1471

 Free energy of the ion-electron system (eV)
  ---------------------------------------------------
  alpha Z        PSCENC =       634.97918720
  Ewald energy   TEWEN  =     54695.28685181
  -1/2 Hartree   DENC   =    -70596.90712160
  -exchange  EXHF       =         0.00000000
  -V(xc)+E(xc)   XCENC  =       570.56860454
  PAW double counting   =     12600.45222132   -12481.74034641
  entropy T*S    EENTRO =         0.02936027
  eigenvalues    EBANDS =     -1481.92771005
  atomic energy  EATOM  =     15809.11153208
  ---------------------------------------------------
  free energy    TOTEN  =      -250.14742084 eV

  energy without entropy =     -250.17678111  energy(sigma->0) =     -250.15720760


--------------------------------------------------------------------------------------------------------




----------------------------------------- Iteration    1(  14)  ---------------------------------------


    POTLOK:  cpu time    0.04: real time    0.04
    SETDIJ:  cpu time    0.01: real time    0.01
     EDDAV:  cpu time    0.73: real time    0.73
       DOS:  cpu time    0.00: real time    0.00
    CHARGE:  cpu time    0.03: real time    0.03
    MIXING:  cpu time    0.00: real time    0.00
    --------------------------------------------
      LOOP:  cpu time    0.80: real time    0.87

 eigenvalue-minimisations  :  2016
 total energy-change (2. order) :-0.5523124E+00  (-0.1594236E+00)
 number of electron     233.9999814 magnetization      -0.1711863
 augmentation part       67.2168101 magnetization      -0.0523557

 Broyden mixing:
  rms(total) = 0.20165E+01    rms(broyden)= 0.20160E+01
  rms(prec ) = 0.22537E+01
  weight for this iteration     100.00

 eigenvalues of (default mixing * dielectric matrix)
  average eigenvalue GAMMA=   0.3423
  0.6622  0.6622  0.5770  0.3152  0.3152  0.2075  0.0951  0.0951  0.1513

 Free energy of the ion-electron system (eV)
  ---------------------------------------------------
  alpha Z        PSCENC =       634.97918720
  Ewald energy   TEWEN  =     54695.28685181
  -1/2 Hartree   DENC   =    -70602.69125388
  -exchange  EXHF       =         0.00000000
  -V(xc)+E(xc)   XCENC  =       571.64734549
  PAW double counting   =     12629.91941101   -12510.30011170
  entropy T*S    EENTRO =        -0.03827868
  eigenvalues    EBANDS =     -1478.61441656
  atomic energy  EATOM  =     15809.11153208
  ---------------------------------------------------
  free energy    TOTEN  =      -250.69973324 eV

  energy without entropy =     -250.66145456  energy(sigma->0) =     -250.68697368


--------------------------------------------------------------------------------------------------------




----------------------------------------- Iteration    1(  15)  ---------------------------------------


    POTLOK:  cpu time    0.04: real time    0.04
    SETDIJ:  cpu time    0.01: real time    0.01
     EDDAV:  cpu time    0.73: real time    0.73
       DOS:  cpu time    0.00: real time    0.00
    CHARGE:  cpu time    0.03: real time    0.03
    MIXING:  cpu time    0.00: real time    0.00
    --------------------------------------------
      LOOP:  cpu time    0.80: real time    0.87

 eigenvalue-minimisations  :  2016
 total energy-change (2. order) : 0.1197457E+00  (-0.2289699E+00)
 number of electron     233.9999807 magnetization      -0.1389983
 augmentation part       67.5131088 magnetization       0.3882877

 Broyden mixing:
  rms(total) = 0.17057E+01    rms(broyden)= 0.17053E+01
  rms(prec ) = 0.18954E+01
  weight for this iteration     100.00

 eigenvalues of (default mixing * dielectric matrix)
  average eigenvalue GAMMA=   0.4213
  1.0155  1.0155  0.5394  0.4173  0.4173  0.0951  0.0951  0.1496  0.2340  0.2340

 Free energy of the ion-electron system (eV)
  ---------------------------------------------------
  alpha Z        PSCENC =       634.97918720
  Ewald energy   TEWEN  =     54695.28685181
  -1/2 Hartree   DENC   =    -70588.95118776
  -exchange  EXHF       =         0.00000000
  -V(xc)+E(xc)   XCENC  =       573.27697336
  PAW double counting   =     12673.63518508   -12552.97533419
  entropy T*S    EENTRO =         0.00592033
  eigenvalues    EBANDS =     -1494.94911549
  atomic energy  EATOM  =     15809.11153208
  ---------------------------------------------------
  free energy    TOTEN  =      -250.57998758 eV

  energy without entropy =     -250.58590791  energy(sigma->0) =     -250.58196103


--------------------------------------------------------------------------------------------------------




----------------------------------------- Iteration    1(  16)  ---------------------------------------


    POTLOK:  cpu time    0.04: real time    0.04
    SETDIJ:  cpu time    0.01: real time    0.01
     EDDAV:  cpu time    0.75: real time    0.75
       DOS:  cpu time    0.00: real time    0.00
    CHARGE:  cpu time    0.03: real time    0.03
    MIXING:  cpu time    0.00: real time    0.00
    --------------------------------------------
      LOOP:  cpu time    0.83: real time    0.90

 eigenvalue-minimisations  :  2096
 total energy-change (2. order) : 0.9293199E+00  (-0.4345935E+00)
 number of electron     233.9999782 magnetization      -0.1623458
 augmentation part       68.2294272 magnetization       0.8630806

 Broyden mixing:
  rms(total) = 0.11648E+01    rms(broyden)= 0.11638E+01
  rms(prec ) = 0.13248E+01
  weight for this iteration     100.00

 eigenvalues of (default mixing * dielectric matrix)
  average eigenvalue GAMMA=   0.4328
  1.1283  1.1283  0.5143  0.4616  0.4616  0.2622  0.2622  0.0951  0.0951  0.1503
  0.2018

 Free energy of the ion-electron system (eV)
  ---------------------------------------------------
  alpha Z        PSCENC =       634.97918720
  Ewald energy   TEWEN  =     54695.28685181
  -1/2 Hartree   DENC   =    -70590.40494723
  -exchange  EXHF       =         0.00000000
  -V(xc)+E(xc)   XCENC  =       578.74812697
  PAW double counting   =     12808.14309752   -12683.66812465
  entropy T*S    EENTRO =         0.01965879
  eigenvalues    EBANDS =     -1501.86605016
  atomic energy  EATOM  =     15809.11153208
  ---------------------------------------------------
  free energy    TOTEN  =      -249.65066767 eV

  energy without entropy =     -249.67032646  energy(sigma->0) =     -249.65722060


--------------------------------------------------------------------------------------------------------




----------------------------------------- Iteration    1(  17)  ---------------------------------------


    POTLOK:  cpu time    0.04: real time    0.04
    SETDIJ:  cpu time    0.01: real time    0.01
     EDDAV:  cpu time    0.72: real time    0.72
       DOS:  cpu time    0.00: real time    0.00
    CHARGE:  cpu time    0.03: real time    0.03
    MIXING:  cpu time    0.00: real time    0.00
    --------------------------------------------
      LOOP:  cpu time    0.79: real time    0.88

 eigenvalue-minimisations  :  1992
 total energy-change (2. order) : 0.4447436E+00  (-0.1692887E+00)
 number of electron     233.9999781 magnetization      -0.2344964
 augmentation part       68.4946634 magnetization       0.6692948

 Broyden mixing:
  rms(total) = 0.91238E+00    rms(broyden)= 0.91217E+00
  rms(prec ) = 0.11427E+01
  weight for this iteration     100.00

 eigenvalues of (default mixing * dielectric matrix)
  average eigenvalue GAMMA=   0.4854
  1.2486  1.2486  0.6744  0.6744  0.4128  0.3779  0.3779  0.0951  0.0951  0.1499
  0.2486  0.2217

 Free energy of the ion-electron system (eV)
  ---------------------------------------------------
  alpha Z        PSCENC =       634.97918720
  Ewald energy   TEWEN  =     54695.28685181
  -1/2 Hartree   DENC   =    -70593.07678749
  -exchange  EXHF       =         0.00000000
  -V(xc)+E(xc)   XCENC  =       581.48845241
  PAW double counting   =     12875.57701713   -12749.83753872
  entropy T*S    EENTRO =         0.01443132
  eigenvalues    EBANDS =     -1502.74906985
  atomic energy  EATOM  =     15809.11153208
  ---------------------------------------------------
  free energy    TOTEN  =      -249.20592411 eV

  energy without entropy =     -249.22035543  energy(sigma->0) =     -249.21073455


--------------------------------------------------------------------------------------------------------




----------------------------------------- Iteration    1(  18)  ---------------------------------------


    POTLOK:  cpu time    0.04: real time    0.04
    SETDIJ:  cpu time    0.01: real time    0.01
     EDDAV:  cpu time    0.76: real time    0.76
       DOS:  cpu time    0.00: real time    0.00
    CHARGE:  cpu time    0.03: real time    0.03
    MIXING:  cpu time    0.00: real time    0.00
    --------------------------------------------
      LOOP:  cpu time    0.84: real time    0.92

 eigenvalue-minimisations  :  2128
 total energy-change (2. order) : 0.3284189E+00  (-0.4320255E+00)
 number of electron     233.9999753 magnetization      -0.3067971
 augmentation part       69.1107426 magnetization       0.9773768

 Broyden mixing:
  rms(total) = 0.10073E+01    rms(broyden)= 0.10055E+01
  rms(prec ) = 0.11005E+01
  weight for this iteration     100.00

 eigenvalues of (default mixing * dielectric matrix)
  average eigenvalue GAMMA=   0.4974
  1.3277  1.3277  0.7855  0.7855  0.4364  0.4364  0.3794  0.0951  0.0951  0.2661
  0.2194  0.1498  0.1616

 Free energy of the ion-electron system (eV)
  ---------------------------------------------------
  alpha Z        PSCENC =       634.97918720
  Ewald energy   TEWEN  =     54695.28685181
  -1/2 Hartree   DENC   =    -70579.90621158
  -exchange  EXHF       =         0.00000000
  -V(xc)+E(xc)   XCENC  =       585.25429959
  PAW double counting   =     12982.95535310   -12855.95773759
  entropy T*S    EENTRO =         0.00616726
  eigenvalues    EBANDS =     -1520.60694707
  atomic energy  EATOM  =     15809.11153208
  ---------------------------------------------------
  free energy    TOTEN  =      -248.87750521 eV

  energy without entropy =     -248.88367247  energy(sigma->0) =     -248.87956096


--------------------------------------------------------------------------------------------------------




----------------------------------------- Iteration    1(  19)  ---------------------------------------


    POTLOK:  cpu time    0.04: real time    0.04
    SETDIJ:  cpu time    0.01: real time    0.01
     EDDAV:  cpu time    0.72: real time    0.72
       DOS:  cpu time    0.00: real time    0.00
    CHARGE:  cpu time    0.03: real time    0.03
    MIXING:  cpu time    0.00: real time    0.00
    --------------------------------------------
      LOOP:  cpu time    0.80: real time    0.99

 eigenvalue-minimisations  :  2000
 total energy-change (2. order) : 0.2861919E+00  (-0.7916070E-01)
 number of electron     233.9999747 magnetization      -0.3715716
 augmentation part       69.2564472 magnetization       0.8399711

 Broyden mixing:
  rms(total) = 0.80176E+00    rms(broyden)= 0.80137E+00
  rms(prec ) = 0.91556E+00
  weight for this iteration     100.00

 eigenvalues of (default mixing * dielectric matrix)
  average eigenvalue GAMMA=   0.5118
  1.3927  1.3927  0.8458  0.8458  0.4627  0.4627  0.3659  0.3058  0.3058  0.0951
  0.0951  0.1499  0.2226  0.2226

 Free energy of the ion-electron system (eV)
  ---------------------------------------------------
  alpha Z        PSCENC =       634.97918720
  Ewald energy   TEWEN  =     54695.28685181
  -1/2 Hartree   DENC   =    -70588.64798157
  -exchange  EXHF       =         0.00000000
  -V(xc)+E(xc)   XCENC  =       586.83159238
  PAW double counting   =     13033.04861536   -12906.49858369
  entropy T*S    EENTRO =         0.04994777
  eigenvalues    EBANDS =     -1512.75247468
  atomic energy  EATOM  =     15809.11153208
  ---------------------------------------------------
  free energy    TOTEN  =      -248.59131335 eV

  energy without entropy =     -248.64126112  energy(sigma->0) =     -248.60796260


--------------------------------------------------------------------------------------------------------




----------------------------------------- Iteration    1(  20)  ---------------------------------------


    POTLOK:  cpu time    0.04: real time    0.04
    SETDIJ:  cpu time    0.01: real time    0.01
     EDDAV:  cpu time    0.70: real time    0.70
       DOS:  cpu time    0.00: real time    0.00
    CHARGE:  cpu time    0.03: real time    0.03
    MIXING:  cpu time    0.00: real time    0.00
    --------------------------------------------
      LOOP:  cpu time    0.78: real time    0.87

 eigenvalue-minimisations  :  1928
 total energy-change (2. order) :-0.2086020E-01  (-0.2733694E-01)
 number of electron     233.9999745 magnetization      -0.4446584
 augmentation part       69.2477951 magnetization       0.8022272

 Broyden mixing:
  rms(total) = 0.70960E+00    rms(broyden)= 0.70949E+00
  rms(prec ) = 0.79127E+00
  weight for this iteration     100.00

 eigenvalues of (default mixing * dielectric matrix)
  average eigenvalue GAMMA=   0.5349
  1.4545  1.4545  0.8691  0.8691  0.5788  0.5788  0.3958  0.3958  0.3917  0.0951
  0.0951  0.2783  0.1499  0.2147  0.2024

 Free energy of the ion-electron system (eV)
  ---------------------------------------------------
  alpha Z        PSCENC =       634.97918720
  Ewald energy   TEWEN  =     54695.28685181
  -1/2 Hartree   DENC   =    -70587.34028469
  -exchange  EXHF       =         0.00000000
  -V(xc)+E(xc)   XCENC  =       586.82014796
  PAW double counting   =     13042.56104573   -12916.81888794
  entropy T*S    EENTRO =         0.02200052
  eigenvalues    EBANDS =     -1513.23376621
  atomic energy  EATOM  =     15809.11153208
  ---------------------------------------------------
  free energy    TOTEN  =      -248.61217354 eV

  energy without entropy =     -248.63417406  energy(sigma->0) =     -248.61950705


--------------------------------------------------------------------------------------------------------




----------------------------------------- Iteration    1(  21)  ---------------------------------------


    POTLOK:  cpu time    0.04: real time    0.04
    SETDIJ:  cpu time    0.01: real time    0.01
     EDDAV:  cpu time    0.74: real time    0.74
       DOS:  cpu time    0.00: real time    0.00
    CHARGE:  cpu time    0.03: real time    0.03
    MIXING:  cpu time    0.00: real time    0.00
    --------------------------------------------
      LOOP:  cpu time    0.81: real time    0.89

 eigenvalue-minimisations  :  2056
 total energy-change (2. order) : 0.1422546E+00  (-0.1683638E-01)
 number of electron     233.9999746 magnetization      -0.5768347
 augmentation part       69.2584658 magnetization       0.7126518

 Broyden mixing:
  rms(total) = 0.61875E+00    rms(broyden)= 0.61872E+00
  rms(prec ) = 0.69228E+00
  weight for this iteration     100.00

 eigenvalues of (default mixing * dielectric matrix)
  average eigenvalue GAMMA=   0.5754
  1.5245  1.5245  0.9817  0.9817  0.7205  0.7205  0.4875  0.4875  0.0951  0.0951
  0.3465  0.3465  0.3197  0.1499  0.2125  0.2125

 Free energy of the ion-electron system (eV)
  ---------------------------------------------------
  alpha Z        PSCENC =       634.97918720
  Ewald energy   TEWEN  =     54695.28685181
  -1/2 Hartree   DENC   =    -70590.39797292
  -exchange  EXHF       =         0.00000000
  -V(xc)+E(xc)   XCENC  =       587.08929292
  PAW double counting   =     13059.10934953   -12933.88747359
  entropy T*S    EENTRO =         0.02303731
  eigenvalues    EBANDS =     -1509.78372331
  atomic energy  EATOM  =     15809.11153208
  ---------------------------------------------------
  free energy    TOTEN  =      -248.46991897 eV

  energy without entropy =     -248.49295629  energy(sigma->0) =     -248.47759808


--------------------------------------------------------------------------------------------------------




----------------------------------------- Iteration    1(  22)  ---------------------------------------


    POTLOK:  cpu time    0.04: real time    0.04
    SETDIJ:  cpu time    0.01: real time    0.01
     EDDAV:  cpu time    0.72: real time    0.72
       DOS:  cpu time    0.00: real time    0.00
    CHARGE:  cpu time    0.03: real time    0.03
    MIXING:  cpu time    0.00: real time    0.00
    --------------------------------------------
      LOOP:  cpu time    0.79: real time    0.87

 eigenvalue-minimisations  :  1984
 total energy-change (2. order) : 0.2326125E+00  (-0.7500609E-01)
 number of electron     233.9999739 magnetization      -0.6209377
 augmentation part       69.3338799 magnetization       0.5372207

 Broyden mixing:
  rms(total) = 0.57120E+00    rms(broyden)= 0.57051E+00
  rms(prec ) = 0.62740E+00
  weight for this iteration     100.00

 eigenvalues of (default mixing * dielectric matrix)
  average eigenvalue GAMMA=   0.5640
  1.5673  1.5673  1.0182  1.0182  0.7346  0.7346  0.5067  0.5067  0.3543  0.3543
  0.3157  0.0951  0.0951  0.2131  0.2131  0.1499  0.1430

 Free energy of the ion-electron system (eV)
  ---------------------------------------------------
  alpha Z        PSCENC =       634.97918720
  Ewald energy   TEWEN  =     54695.28685181
  -1/2 Hartree   DENC   =    -70590.33878550
  -exchange  EXHF       =         0.00000000
  -V(xc)+E(xc)   XCENC  =       587.55825788
  PAW double counting   =     13084.93415166   -12960.48265344
  entropy T*S    EENTRO =        -0.02404227
  eigenvalues    EBANDS =     -1509.26180588
  atomic energy  EATOM  =     15809.11153208
  ---------------------------------------------------
  free energy    TOTEN  =      -248.23730646 eV

  energy without entropy =     -248.21326420  energy(sigma->0) =     -248.22929237


--------------------------------------------------------------------------------------------------------




----------------------------------------- Iteration    1(  23)  ---------------------------------------


    POTLOK:  cpu time    0.04: real time    0.04
    SETDIJ:  cpu time    0.01: real time    0.01
     EDDAV:  cpu time    0.70: real time    0.70
       DOS:  cpu time    0.00: real time    0.00
    CHARGE:  cpu time    0.03: real time    0.03
    MIXING:  cpu time    0.00: real time    0.00
    --------------------------------------------
      LOOP:  cpu time    0.78: real time    0.86

 eigenvalue-minimisations  :  1944
 total energy-change (2. order) : 0.1456477E+00  (-0.2418812E-01)
 number of electron     233.9999743 magnetization      -0.7078158
 augmentation part       69.2965868 magnetization       0.6109097

 Broyden mixing:
  rms(total) = 0.45373E+00    rms(broyden)= 0.45353E+00
  rms(prec ) = 0.48617E+00
  weight for this iteration     100.00

 eigenvalues of (default mixing * dielectric matrix)
  average eigenvalue GAMMA=   0.5787
  1.6287  1.6287  1.1115  1.1115  0.7828  0.7828  0.5235  0.5235  0.3672  0.3672
  0.3804  0.0951  0.0951  0.2851  0.1499  0.2110  0.2110  0.1616

 Free energy of the ion-electron system (eV)
  ---------------------------------------------------
  alpha Z        PSCENC =       634.97918720
  Ewald energy   TEWEN  =     54695.28685181
  -1/2 Hartree   DENC   =    -70593.25477288
  -exchange  EXHF       =         0.00000000
  -V(xc)+E(xc)   XCENC  =       587.57707912
  PAW double counting   =     13089.83040591   -12965.79695701
  entropy T*S    EENTRO =        -0.00398695
  eigenvalues    EBANDS =     -1505.82099805
  atomic energy  EATOM  =     15809.11153208
  ---------------------------------------------------
  free energy    TOTEN  =      -248.09165878 eV

  energy without entropy =     -248.08767183  energy(sigma->0) =     -248.09032980


--------------------------------------------------------------------------------------------------------




----------------------------------------- Iteration    1(  24)  ---------------------------------------


    POTLOK:  cpu time    0.04: real time    0.04
    SETDIJ:  cpu time    0.01: real time    0.01
     EDDAV:  cpu time    0.73: real time    0.73
       DOS:  cpu time    0.00: real time    0.00
    CHARGE:  cpu time    0.03: real time    0.03
    MIXING:  cpu time    0.00: real time    0.00
    --------------------------------------------
      LOOP:  cpu time    0.80: real time    0.90

 eigenvalue-minimisations  :  2024
 total energy-change (2. order) : 0.6512308E-01  (-0.1360604E-01)
 number of electron     233.9999744 magnetization      -0.7744993
 augmentation part       69.2729491 magnetization       0.6523739

 Broyden mixing:
  rms(total) = 0.38757E+00    rms(broyden)= 0.38743E+00
  rms(prec ) = 0.40743E+00
  weight for this iteration     100.00

 eigenvalues of (default mixing * dielectric matrix)
  average eigenvalue GAMMA=   0.6038
  1.6075  1.6075  1.2919  1.2919  0.8210  0.8210  0.5672  0.5672  0.4675  0.4675
  0.3665  0.3665  0.0951  0.0951  0.3023  0.1499  0.2122  0.2122  0.1629

 Free energy of the ion-electron system (eV)
  ---------------------------------------------------
  alpha Z        PSCENC =       634.97918720
  Ewald energy   TEWEN  =     54695.28685181
  -1/2 Hartree   DENC   =    -70596.20095928
  -exchange  EXHF       =         0.00000000
  -V(xc)+E(xc)   XCENC  =       587.53559081
  PAW double counting   =     13097.09759183   -12973.65804574
  entropy T*S    EENTRO =        -0.00889303
  eigenvalues    EBANDS =     -1502.16939138
  atomic energy  EATOM  =     15809.11153208
  ---------------------------------------------------
  free energy    TOTEN  =      -248.02653570 eV

  energy without entropy =     -248.01764267  energy(sigma->0) =     -248.02357136


--------------------------------------------------------------------------------------------------------




----------------------------------------- Iteration    1(  25)  ---------------------------------------


    POTLOK:  cpu time    0.04: real time    0.04
    SETDIJ:  cpu time    0.00: real time    0.01
     EDDAV:  cpu time    0.69: real time    0.69
       DOS:  cpu time    0.00: real time    0.00
    CHARGE:  cpu time    0.03: real time    0.03
    MIXING:  cpu time    0.00: real time    0.00
    --------------------------------------------
      LOOP:  cpu time    0.76: real time    0.86

 eigenvalue-minimisations  :  1888
 total energy-change (2. order) : 0.3375410E-01  (-0.6369964E-02)
 number of electron     233.9999746 magnetization      -0.8863622
 augmentation part       69.2505904 magnetization       0.5532125

 Broyden mixing:
  rms(total) = 0.33043E+00    rms(broyden)= 0.33036E+00
  rms(prec ) = 0.34811E+00
  weight for this iteration     100.00

 eigenvalues of (default mixing * dielectric matrix)
  average eigenvalue GAMMA=   0.6563
  1.9720  1.9720  1.3415  1.3415  0.9101  0.9101  0.6374  0.6374  0.5283  0.5283
  0.3866  0.3689  0.3689  0.0951  0.0951  0.2968  0.1499  0.2120  0.2120  0.1618

 Free energy of the ion-electron system (eV)
  ---------------------------------------------------
  alpha Z        PSCENC =       634.97918720
  Ewald energy   TEWEN  =     54695.28685181
  -1/2 Hartree   DENC   =    -70600.48811072
  -exchange  EXHF       =         0.00000000
  -V(xc)+E(xc)   XCENC  =       587.58211487
  PAW double counting   =     13103.39995101   -12980.28110907
  entropy T*S    EENTRO =        -0.00415234
  eigenvalues    EBANDS =     -1497.57904645
  atomic energy  EATOM  =     15809.11153208
  ---------------------------------------------------
  free energy    TOTEN  =      -247.99278160 eV

  energy without entropy =     -247.98862926  energy(sigma->0) =     -247.99139749


--------------------------------------------------------------------------------------------------------




----------------------------------------- Iteration    1(  26)  ---------------------------------------


    POTLOK:  cpu time    0.04: real time    0.04
    SETDIJ:  cpu time    0.01: real time    0.01
     EDDAV:  cpu time    0.72: real time    0.72
       DOS:  cpu time    0.00: real time    0.00
    CHARGE:  cpu time    0.03: real time    0.03
    MIXING:  cpu time    0.00: real time    0.00
    --------------------------------------------
      LOOP:  cpu time    0.80: real time    0.99

 eigenvalue-minimisations  :  2000
 total energy-change (2. order) : 0.2070715E-01  (-0.1047057E-01)
 number of electron     233.9999747 magnetization      -1.0629173
 augmentation part       69.2011737 magnetization       0.3641947

 Broyden mixing:
  rms(total) = 0.24014E+00    rms(broyden)= 0.24000E+00
  rms(prec ) = 0.25123E+00
  weight for this iteration     100.00

 eigenvalues of (default mixing * dielectric matrix)
  average eigenvalue GAMMA=   0.6937
  2.2364  2.2364  1.3625  1.3625  0.9272  0.9272  0.7921  0.7921  0.5628  0.5628
  0.4064  0.4064  0.3842  0.3842  0.0951  0.0951  0.2990  0.1499  0.2120  0.2120
  0.1618

 Free energy of the ion-electron system (eV)
  ---------------------------------------------------
  alpha Z        PSCENC =       634.97918720
  Ewald energy   TEWEN  =     54695.28685181
  -1/2 Hartree   DENC   =    -70605.65321642
  -exchange  EXHF       =         0.00000000
  -V(xc)+E(xc)   XCENC  =       587.31531887
  PAW double counting   =     13107.69779933   -12985.19411072
  entropy T*S    EENTRO =        -0.00276896
  eigenvalues    EBANDS =     -1491.51266764
  atomic energy  EATOM  =     15809.11153208
  ---------------------------------------------------
  free energy    TOTEN  =      -247.97207445 eV

  energy without entropy =     -247.96930549  energy(sigma->0) =     -247.97115146


--------------------------------------------------------------------------------------------------------




----------------------------------------- Iteration    1(  27)  ---------------------------------------


    POTLOK:  cpu time    0.04: real time    0.04
    SETDIJ:  cpu time    0.01: real time    0.01
     EDDAV:  cpu time    0.71: real time    0.71
       DOS:  cpu time    0.00: real time    0.00
    CHARGE:  cpu time    0.03: real time    0.03
    MIXING:  cpu time    0.00: real time    0.00
    --------------------------------------------
      LOOP:  cpu time    0.78: real time    0.97

 eigenvalue-minimisations  :  1952
 total energy-change (2. order) :-0.1062684E+00  (-0.1004716E-01)
 number of electron     233.9999748 magnetization      -1.2285102
 augmentation part       69.2101271 magnetization       0.1323523

 Broyden mixing:
  rms(total) = 0.14990E+00    rms(broyden)= 0.14959E+00
  rms(prec ) = 0.16125E+00
  weight for this iteration     100.00

 eigenvalues of (default mixing * dielectric matrix)
  average eigenvalue GAMMA=   0.7127
  2.2498  2.2498  1.5075  1.5075  0.9367  0.9367  0.9286  0.9286  0.5799  0.5799
  0.4832  0.4832  0.0951  0.0951  0.3722  0.3722  0.3379  0.2993  0.1499  0.2120
  0.2120  0.1618

 Free energy of the ion-electron system (eV)
  ---------------------------------------------------
  alpha Z        PSCENC =       634.97918720
  Ewald energy   TEWEN  =     54695.28685181
  -1/2 Hartree   DENC   =    -70613.41688515
  -exchange  EXHF       =         0.00000000
  -V(xc)+E(xc)   XCENC  =       587.38291685
  PAW double counting   =     13125.16521790   -13003.04157425
  entropy T*S    EENTRO =        -0.00035868
  eigenvalues    EBANDS =     -1483.54523064
  atomic energy  EATOM  =     15809.11153208
  ---------------------------------------------------
  free energy    TOTEN  =      -248.07834288 eV

  energy without entropy =     -248.07798420  energy(sigma->0) =     -248.07822332


--------------------------------------------------------------------------------------------------------




----------------------------------------- Iteration    1(  28)  ---------------------------------------


    POTLOK:  cpu time    0.04: real time    0.04
    SETDIJ:  cpu time    0.01: real time    0.01
     EDDAV:  cpu time    0.66: real time    0.66
       DOS:  cpu time    0.00: real time    0.00
    CHARGE:  cpu time    0.03: real time    0.03
    MIXING:  cpu time    0.00: real time    0.00
    --------------------------------------------
      LOOP:  cpu time    0.74: real time    0.95

 eigenvalue-minimisations  :  1800
 total energy-change (2. order) :-0.2193464E+00  (-0.5564932E-02)
 number of electron     233.9999748 magnetization      -1.4415095
 augmentation part       69.1941082 magnetization      -0.0859057

 Broyden mixing:
  rms(total) = 0.11145E+00    rms(broyden)= 0.11137E+00
  rms(prec ) = 0.11787E+00
  weight for this iteration     100.00

 eigenvalues of (default mixing * dielectric matrix)
  average eigenvalue GAMMA=   0.7333
  2.2536  2.2536  1.6734  1.6734  0.9372  0.9372  0.9816  0.9816  0.5910  0.5910
  0.6578  0.5058  0.5058  0.0951  0.0951  0.3767  0.3767  0.3437  0.2992  0.1499
  0.2120  0.2120  0.1618

 Free energy of the ion-electron system (eV)
  ---------------------------------------------------
  alpha Z        PSCENC =       634.97918720
  Ewald energy   TEWEN  =     54695.28685181
  -1/2 Hartree   DENC   =    -70615.82847275
  -exchange  EXHF       =         0.00000000
  -V(xc)+E(xc)   XCENC  =       587.27885384
  PAW double counting   =     13134.53068305   -13012.69854074
  entropy T*S    EENTRO =         0.00193039
  eigenvalues    EBANDS =     -1480.95971419
  atomic energy  EATOM  =     15809.11153208
  ---------------------------------------------------
  free energy    TOTEN  =      -248.29768931 eV

  energy without entropy =     -248.29961969  energy(sigma->0) =     -248.29833277


--------------------------------------------------------------------------------------------------------




----------------------------------------- Iteration    1(  29)  ---------------------------------------


    POTLOK:  cpu time    0.04: real time    0.04
    SETDIJ:  cpu time    0.01: real time    0.01
     EDDAV:  cpu time    0.62: real time    0.62
       DOS:  cpu time    0.00: real time    0.00
    CHARGE:  cpu time    0.03: real time    0.03
    MIXING:  cpu time    0.00: real time    0.00
    --------------------------------------------
      LOOP:  cpu time    0.70: real time    0.78

 eigenvalue-minimisations  :  1672
 total energy-change (2. order) :-0.2219634E+00  (-0.4777174E-02)
 number of electron     233.9999749 magnetization      -1.5415869
 augmentation part       69.1808101 magnetization      -0.1583376

 Broyden mixing:
  rms(total) = 0.99118E-01    rms(broyden)= 0.99015E-01
  rms(prec ) = 0.10394E+00
  weight for this iteration     100.00

 eigenvalues of (default mixing * dielectric matrix)
  average eigenvalue GAMMA=   0.7327
  2.1143  2.1143  1.8845  1.8845  0.9353  0.9353  0.9814  0.9814  0.6528  0.6528
  0.5939  0.5939  0.5005  0.0951  0.0951  0.4249  0.3757  0.3757  0.3583  0.2991
  0.1499  0.2120  0.2120  0.1618

 Free energy of the ion-electron system (eV)
  ---------------------------------------------------
  alpha Z        PSCENC =       634.97918720
  Ewald energy   TEWEN  =     54695.28685181
  -1/2 Hartree   DENC   =    -70619.40890440
  -exchange  EXHF       =         0.00000000
  -V(xc)+E(xc)   XCENC  =       587.11225189
  PAW double counting   =     13142.78155053   -13021.29208881
  entropy T*S    EENTRO =         0.00321927
  eigenvalues    EBANDS =     -1477.09325231
  atomic energy  EATOM  =     15809.11153208
  ---------------------------------------------------
  free energy    TOTEN  =      -248.51965274 eV

  energy without entropy =     -248.52287201  energy(sigma->0) =     -248.52072583


--------------------------------------------------------------------------------------------------------




----------------------------------------- Iteration    1(  30)  ---------------------------------------


    POTLOK:  cpu time    0.04: real time    0.04
    SETDIJ:  cpu time    0.01: real time    0.01
     EDDAV:  cpu time    0.63: real time    0.63
       DOS:  cpu time    0.00: real time    0.00
    CHARGE:  cpu time    0.03: real time    0.03
    MIXING:  cpu time    0.00: real time    0.00
    --------------------------------------------
      LOOP:  cpu time    0.71: real time    0.80

 eigenvalue-minimisations  :  1680
 total energy-change (2. order) :-0.9111383E-01  (-0.2779786E-02)
 number of electron     233.9999749 magnetization      -1.7155589
 augmentation part       69.1714872 magnetization      -0.3104905

 Broyden mixing:
  rms(total) = 0.96720E-01    rms(broyden)= 0.96660E-01
  rms(prec ) = 0.99866E-01
  weight for this iteration     100.00

 eigenvalues of (default mixing * dielectric matrix)
  average eigenvalue GAMMA=   0.7589
  2.1222  2.1222  1.9617  1.9617  1.1031  1.1031  0.9276  0.9276  0.8706  0.8706
  0.5856  0.5856  0.5347  0.4872  0.4872  0.0951  0.0951  0.3756  0.3756  0.3463
  0.2992  0.1499  0.2120  0.2120  0.1618

 Free energy of the ion-electron system (eV)
[...]
     26      -6.9055      1.00000
     27      -6.6954      1.00000
     28      -6.6252      1.00000
     29      -6.4647      1.00000
     30      -6.2912      1.00000
     31      -6.0296      1.00000
     32      -6.0218      1.00000
     33      -5.9313      1.00000
     34      -5.9028      1.00000
     35      -5.8933      1.00000
     36      -5.8046      1.00000
     37      -5.8022      1.00000
     38      -5.7875      1.00000
     39      -5.7106      1.00000
     40      -5.6844      1.00000
     41      -5.5881      1.00000
     42      -5.3441      1.00000
     43      -5.2934      1.00000
     44      -5.2031      1.00000
     45      -5.1884      1.00000
     46      -5.0083      1.00000
     47      -4.9679      1.00000
     48      -4.8910      1.00000
     49      -4.8333      1.00000
     50      -4.8290      1.00000
     51      -4.7230      1.00000
     52      -4.7165      1.00000
     53      -4.6438      1.00000
     54      -4.6416      1.00000
     55      -4.6002      1.00000
     56      -4.5938      1.00000
     57      -4.5737      1.00000
     58      -4.5427      1.00000
     59      -4.5299      1.00000
     60      -4.5022      1.00000
     61      -4.4611      1.00000
     62      -4.4224      1.00000
     63      -4.2590      1.00000
     64      -4.2129      1.00000
     65      -4.1944      1.00000
     66      -4.1828      1.00000
     67      -4.1664      1.00000
     68      -3.9445      1.00000
     69      -3.8084      1.00000
     70      -3.7884      1.00000
     71      -3.6899      1.00000
     72      -3.6870      1.00000
     73      -3.5261      1.00000
     74      -3.5108      1.00000
     75      -3.5029      1.00000
     76      -3.4844      1.00000
     77      -3.4223      1.00000
     78      -3.4050      1.00000
     79      -3.4017      1.00000
     80      -3.3865      1.00000
     81      -3.2573      1.00000
     82      -3.2240      1.00000
     83      -3.1562      1.00000
     84      -2.9795      1.00000
     85      -2.9176      1.00000
     86      -2.8864      1.00000
     87      -2.8595      1.00000
     88      -2.8495      1.00000
     89      -2.7679      1.00000
     90      -2.7608      1.00000
     91      -2.7527      1.00000
     92      -2.6169      1.00000
     93      -2.5277      1.00000
     94      -2.5105      1.00000
     95      -2.3565      1.00000
     96      -1.9232      1.00000
     97      -1.8523      1.00000
     98      -1.7149      1.00000
     99      -1.6187      1.00000
    100      -1.4622      1.00000
    101      -1.4234      1.00000
    102      -1.3932      1.00000
    103      -1.3182      1.00000
    104      -1.2150      1.00000
    105      -1.1969      1.00000
    106      -1.1492      1.00000
    107      -1.0778      1.00000
    108      -1.0227      1.00000
    109      -0.9471      1.00000
    110      -0.8489      1.00000
    111      -0.8197      1.00000
    112      -0.7731      1.00000
    113      -0.6559      1.00000
    114      -0.5648      1.00000
    115      -0.3235      1.00077
    116      -0.3093      1.00106
    117      -0.2892      1.00165
    118      -0.1377      1.02026
    119      -0.0933      1.03024
    120       0.2847      0.15846
    121       1.0880     -0.00000
    122       1.6533     -0.00000
    123       1.7591     -0.00000
    124       1.9265     -0.00000
    125       1.9689     -0.00000
    126       1.9730     -0.00000
    127       2.0231     -0.00000
    128       2.1084     -0.00000
    129       2.2571     -0.00000
    130       2.5299     -0.00000
    131       2.6468     -0.00000
    132       2.6801     -0.00000
    133       2.7451     -0.00000
    134       2.8177     -0.00000
    135       2.8321     -0.00000
    136       2.8578     -0.00000
    137       3.0069     -0.00000
    138       3.0367     -0.00000
    139       3.1538     -0.00000
    140       3.1627     -0.00000
    141       3.2139     -0.00000
    142       3.2787     -0.00000
    143       3.3842     -0.00000
    144       3.4087     -0.00000


--------------------------------------------------------------------------------------------------------


 soft charge-density along one line, spin component           1
         0         1         2         3         4         5         6         7         8         9
 total charge-density along one line
 
 soft charge-density along one line, spin component           2
         0         1         2         3         4         5         6         7         8         9
 total charge-density along one line
 
 pseudopotential strength for first ion, spin component:           1
 24.283   0.016   0.000  -0.067  -0.000   0.000  -0.012  -0.000
  0.016   0.024   0.000  -0.001  -0.000   0.000  -0.000  -0.000
  0.000   0.000  -6.101   0.000  -0.000   0.019   0.000  -0.000
 -0.067  -0.001   0.000  -6.241   0.000   0.000   0.002   0.000
 -0.000  -0.000  -0.000   0.000  -6.179  -0.000   0.000   0.010
  0.000   0.000   0.019   0.000  -0.000   0.202   0.000  -0.000
 -0.012  -0.000   0.000   0.002   0.000   0.000   0.200   0.000
 -0.000  -0.000  -0.000   0.000   0.010  -0.000   0.000   0.201
 pseudopotential strength for first ion, spin component:           2
 24.305   0.017   0.000  -0.078   0.000   0.000  -0.014  -0.000
  0.017   0.024   0.000  -0.001   0.000   0.000  -0.000  -0.000
  0.000   0.000  -5.987   0.000  -0.000   0.037   0.000  -0.000
 -0.078  -0.001   0.000  -6.401   0.000   0.000  -0.024   0.000
  0.000   0.000  -0.000   0.000  -6.287  -0.000   0.000  -0.007
  0.000   0.000   0.037   0.000  -0.000   0.205   0.000  -0.000
 -0.014  -0.000   0.000  -0.024   0.000   0.000   0.196   0.000
 -0.000  -0.000  -0.000   0.000  -0.007  -0.000   0.000   0.198
 total augmentation occupancy for first ion, spin component:           1
  1.835   0.529   0.000  -0.023   0.000   0.000  -0.035   0.000
  0.529   0.467   0.000   0.143   0.000   0.000  -0.113   0.000
  0.000   0.000   1.839   0.000   0.000  -0.562   0.000   0.000
 -0.023   0.143   0.000   1.629   0.000   0.000  -1.023   0.000
  0.000   0.000   0.000   0.000   1.704   0.000   0.000  -0.890
  0.000   0.000  -0.562   0.000   0.000   0.325   0.000   0.000
 -0.035  -0.113   0.000  -1.023   0.000   0.000   0.763   0.000
  0.000   0.000   0.000   0.000  -0.890   0.000   0.000   0.597
 total augmentation occupancy for first ion, spin component:           2
  0.007  -0.029   0.000  -0.012   0.000   0.000  -0.001   0.000
 -0.029   0.108   0.000   0.039   0.000   0.000  -0.015   0.000
  0.000   0.000   0.121   0.000   0.000   0.060   0.000   0.000
 -0.012   0.039   0.000  -0.135   0.000   0.000  -0.013   0.000
  0.000   0.000   0.000   0.000  -0.084   0.000   0.000  -0.014
  0.000   0.000   0.060   0.000   0.000  -0.004   0.000   0.000
 -0.001  -0.015   0.000  -0.013   0.000   0.000   0.094   0.000
  0.000   0.000   0.000   0.000  -0.014   0.000   0.000   0.062


------------------------ aborting loop because EDIFF is reached ----------------------------------------


    CHARGE:  cpu time    0.03: real time    0.03
    FORLOC:  cpu time    0.00: real time    0.00
    FORNL :  cpu time    0.21: real time    0.21
    STRESS:  cpu time    0.21: real time    0.21
    FORCOR:  cpu time    0.03: real time    0.03
    FORHAR:  cpu time    0.00: real time    0.00
    MIXING:  cpu time    0.00: real time    0.00

  FORCE on cell =-STRESS in cart. coord.  units (eV):
  Direction    XX          YY          ZZ          XY          YZ          ZX
  --------------------------------------------------------------------------------------
  Alpha Z   634.97919   634.97919   634.97919
  Ewald   64348.96354 62999.34350-72845.92273     0.00000     0.00000    -0.00000
  Hartree 68415.89451 67817.71567-65824.71494    -0.00000     0.00000    -0.00000
  E(xc)   -1149.97163 -1149.41637 -1150.13735     0.00000     0.00000     0.00000
  Local  ************************134167.18977     0.00000    -0.00000     0.00000
  n-local   285.18058   285.88320   277.44343     0.00001    -0.00000    -0.00000
  augment  1430.00874  1448.20483  1448.64026     0.00000    -0.00000     0.00000
  Kinetic  3226.74578  3302.49454  3301.83936    -0.00000     0.00000    -0.00000
  Fock        0.00000     0.00000     0.00000     0.00000     0.00000     0.00000
  -------------------------------------------------------------------------------------
  Total      22.45778    26.97399     9.31699     0.00000     0.00000     0.00000
  in kB      69.75632    83.78414    28.93960     0.00000     0.00000     0.00000
  external pressure =       60.83 kB  Pullay stress =        0.00 kB


 VOLUME and BASIS-vectors are now :
 -----------------------------------------------------------------------------
  energy-cutoff  :      367.69
  volume of cell :      515.81
      direct lattice vectors                 reciprocal lattice vectors
     2.869999890  0.000000000  0.000000000     0.348432069  0.000000000  0.000000000
     0.000000000  6.250820160  0.000000000     0.000000000  0.159979007  0.000000000
     0.000000000  0.000000000 28.752460480     0.000000000  0.000000000  0.034779632

  length of vectors
     2.869999890  6.250820160 28.752460480     0.348432069  0.159979007  0.034779632


 FORCES acting on ions
    electron-ion (+dipol)            ewald-force                    non-local-force                 convergence-correction
 -----------------------------------------------------------------------------------------------
   -.494E-14 -.138E-05 0.805E+03   -.159E-13 0.641E-05 -.816E+03   -.445E-23 -.766E-22 0.106E+02   -.113E-13 0.554E-09 0.128E+00
   0.996E-15 -.159E-05 -.708E+03   -.904E-16 0.741E-05 0.700E+03   0.198E-23 0.644E-22 0.695E+01   -.286E-13 -.365E-09 0.302E+00
   0.506E-14 -.174E-06 -.209E+04   -.184E-14 0.828E-06 0.211E+04   -.692E-24 -.135E-23 -.272E+02   -.842E-14 -.323E-10 -.927E-01
   0.185E-12 -.480E+01 0.185E+04   -.299E-13 0.132E+01 -.186E+04   0.434E-22 0.352E+01 0.106E+02   -.229E-13 -.435E-02 -.224E+00
   0.180E-12 0.480E+01 0.185E+04   0.168E-13 -.132E+01 -.186E+04   -.863E-22 -.352E+01 0.106E+02   -.227E-13 0.435E-02 -.224E+00
   0.202E-12 0.383E+02 0.476E+03   -.202E-13 -.452E+02 -.477E+03   0.591E-23 0.653E+01 -.739E-01   -.380E-14 -.992E-02 0.233E+00
   0.178E-12 -.383E+02 0.476E+03   -.178E-13 0.452E+02 -.477E+03   -.223E-24 -.653E+01 -.739E-01   0.907E-14 0.992E-02 0.233E+00
   0.181E-12 0.373E+02 -.104E+04   -.357E-13 -.438E+02 0.104E+04   0.138E-23 0.610E+01 0.174E+00   -.159E-13 -.389E-03 0.229E+00
   0.175E-12 -.373E+02 -.104E+04   -.103E-13 0.438E+02 0.104E+04   0.983E-24 -.610E+01 0.174E+00   -.641E-14 0.389E-03 0.229E+00
   -.383E-15 -.514E-06 0.154E+04   0.118E-13 0.241E-05 -.154E+04   0.141E-22 0.227E-22 -.597E+01   -.188E-13 0.100E-09 -.223E+00
   -.257E-13 -.155E-05 0.146E+03   0.573E-14 0.723E-05 -.140E+03   0.453E-23 -.946E-23 -.602E+01   -.173E-13 0.523E-09 0.320E+00
   -.784E-14 -.157E-05 -.137E+04   -.170E-14 0.732E-05 0.138E+04   0.125E-23 -.488E-22 -.882E+01   -.985E-14 -.399E-09 0.144E+00
   -.806E-14 0.116E-06 0.151E+04   -.509E-14 -.548E-06 -.152E+04   -.665E-23 0.145E-21 0.112E+02   -.243E-13 -.822E-09 -.165E+00
   -.819E-14 0.157E-05 0.520E+02   -.151E-14 -.732E-05 -.597E+02   -.688E-24 -.146E-21 0.731E+01   -.311E-14 -.296E-10 0.350E+00
   -.635E-14 0.154E-05 -.147E+04   -.713E-14 -.723E-05 0.146E+04   -.158E-23 -.208E-22 0.395E+01   -.131E-13 0.308E-09 0.993E-01
   0.175E-12 0.349E+02 0.119E+04   -.354E-13 -.422E+02 -.119E+04   -.108E-22 0.731E+01 0.268E+00   -.103E-14 -.119E-01 -.635E-01
   0.190E-12 -.349E+02 0.119E+04   0.437E-14 0.422E+02 -.119E+04   0.136E-22 -.731E+01 0.268E+00   0.520E-14 0.119E-01 -.635E-01
   0.183E-12 0.372E+02 -.281E+03   0.303E-13 -.440E+02 0.281E+03   -.126E-23 0.646E+01 -.126E+00   -.176E-13 0.723E-02 0.355E+00
   0.184E-12 -.372E+02 -.281E+03   0.199E-13 0.440E+02 0.281E+03   0.720E-24 -.646E+01 -.126E+00   0.801E-15 -.723E-02 0.355E+00
   0.217E-12 0.431E+02 -.180E+04   0.270E-13 -.511E+02 0.180E+04   -.328E-24 0.777E+01 -.312E+00   -.189E-13 0.169E-01 0.533E-01
   0.206E-12 -.431E+02 -.180E+04   0.115E-13 0.511E+02 0.180E+04   -.130E-23 -.777E+01 -.312E+00   -.116E-13 -.169E-01 0.533E-01
   -.681E-14 0.192E-06 0.869E+03   0.107E-13 -.906E-06 -.863E+03   -.170E-22 0.269E-22 -.596E+01   -.105E-13 -.132E-09 0.350E-01
   -.983E-14 0.159E-05 -.615E+03   -.127E-13 -.741E-05 0.622E+03   0.530E-23 -.129E-21 -.705E+01   -.211E-13 0.437E-10 0.334E+00
   0.929E-14 0.141E-05 -.215E+04   -.110E-13 -.660E-05 0.218E+04   0.375E-24 0.794E-22 -.335E+02   -.138E-13 0.284E-09 -.483E-01
   0.190E-12 -.699E-06 0.195E+04   0.976E-14 0.326E-05 -.198E+04   0.122E-22 -.425E-23 0.313E+02   -.109E-13 0.321E-08 -.197E+00
   -.170E-13 -.237E-06 0.138E+04   0.337E-13 0.110E-05 -.138E+04   -.596E-23 -.550E-24 -.140E+00   -.679E-14 0.235E-09 -.825E-01
   0.226E-14 0.147E-05 -.328E+03   -.336E-13 -.681E-05 0.328E+03   -.316E-24 -.220E-23 -.470E-02   -.101E-13 0.634E-10 0.414E+00
   -.144E-14 0.165E-05 -.209E+04   -.211E-13 -.771E-05 0.209E+04   0.866E-23 -.288E-23 0.118E+01   -.122E-13 0.165E-09 0.837E-01
   0.123E-12 -.267E-05 0.203E+04   -.108E-13 0.125E-04 -.203E+04   0.299E-22 0.303E-22 -.114E+01   -.893E-14 0.898E-09 -.238E+00
   0.104E-12 -.573E-05 0.559E+03   0.110E-13 0.267E-04 -.559E+03   -.511E-23 0.501E-22 -.143E+00   0.431E-14 0.168E-08 0.278E+00
   0.802E-13 -.586E-05 -.121E+04   0.160E-13 0.273E-04 0.121E+04   -.211E-23 0.128E-21 -.357E-01   -.739E-14 -.121E-08 0.265E+00
   0.224E-14 -.872E-06 0.212E+04   0.647E-14 0.407E-05 -.212E+04   0.247E-24 0.715E-23 -.154E+01   -.810E-14 -.295E-08 -.264E+00
   -.165E-14 -.166E-05 0.559E+03   0.333E-13 0.770E-05 -.560E+03   -.334E-23 -.155E-22 -.356E+00   -.146E-14 0.412E-09 0.271E+00
   0.472E-14 -.147E-05 -.122E+04   0.339E-13 0.681E-05 0.122E+04   -.159E-23 0.196E-22 -.667E-02   -.131E-13 -.266E-09 0.268E+00
   0.115E-12 0.174E-06 0.138E+04   0.105E-13 -.816E-06 -.138E+04   0.737E-24 -.824E-25 -.144E-01   -.143E-14 -.308E-09 -.721E-01
   0.902E-13 0.586E-05 -.328E+03   0.942E-14 -.273E-04 0.328E+03   0.493E-23 -.120E-21 -.644E-01   -.187E-13 0.748E-10 0.418E+00
   0.108E-12 0.570E-05 -.211E+04   0.164E-13 -.267E-04 0.211E+04   -.270E-23 0.109E-21 -.236E+00   -.103E-14 0.923E-09 0.388E-01
 -----------------------------------------------------------------------------------------------
   0.299E-11 -.527E-04 0.114E+01   0.465E-13 0.102E-12 0.909E-12   -.221E-23 0.176E-21 -.465E+01   -.382E-12 0.111E-07 0.353E+01
 
 
 POSITION                                       TOTAL-FORCE (eV/Angst)
 -----------------------------------------------------------------------------------
     -0.00000      3.12541      9.99575         0.000000      0.000000     -0.015302
      0.00000      3.12541     16.28136        -0.000000     -0.000000     -0.078930
      0.00000      3.12541     22.53218        -0.000000     -0.000000     -0.698916
      1.43500      5.01998      4.49862         0.000000      0.033907      0.015351
      1.43500      1.23084      4.49862         0.000000     -0.033907      0.015351
      1.43500      5.03054     11.25082        -0.000000     -0.404452     -0.015008
      1.43500      1.22029     11.25082         0.000000      0.404452     -0.015008
      1.43500      5.03054     17.50164        -0.000000     -0.459279     -0.025912
      1.43500      1.22029     17.50164         0.000000      0.459279     -0.025912
     -0.00000      3.12541      6.03193        -0.000000      0.000000     -0.018195
      0.00000      3.12541     12.47110        -0.000000      0.000000      0.225350
      0.00000      3.12541     18.72193        -0.000000      0.000000     -0.124640
     -0.00000      0.00000      6.77005         0.000000     -0.000000      0.029800
      0.00000      0.00000     13.15594        -0.000000      0.000000     -0.063782
      0.00000      0.00000     19.40677        -0.000000     -0.000000     -0.752237
      1.43500      1.89937      8.00310        -0.000000      0.020726      0.033711
      1.43500      4.35145      8.00310         0.000000     -0.020726      0.033711
      1.43500      1.90513     14.37623        -0.000000     -0.395197      0.006584
      1.43500      4.34570     14.37623         0.000000      0.395197      0.006584
      1.43500      1.90513     20.62705         0.000000     -0.230820      0.058934
      1.43500      4.34570     20.62705         0.000000      0.230820      0.058934
     -0.00000      0.00000      9.30380        -0.000000     -0.000000     -0.009091
      0.00000      0.00000     15.59652        -0.000000      0.000000      0.096120
      0.00000      0.00000     21.84734        -0.000000      0.000000     -0.002758
      1.43500      3.12541      3.01629        -0.000000      0.000000      0.053844
     -0.00000      3.12541      7.99876        -0.000000     -0.000000     -0.003955
      0.00000      3.12541     14.37623        -0.000000      0.000000     -0.089124
      0.00000      3.12541     20.62705         0.000000      0.000000      1.668631
      1.43500      3.12541      4.77951        -0.000000     -0.000000      0.016657
      1.43500      3.12541     11.25082         0.000000     -0.000000     -0.743471
      1.43500      3.12541     17.50164        -0.000000     -0.000000     -0.120344
     -0.00000      0.00000      4.75721        -0.000000     -0.000000      0.008255
      0.00000      0.00000     11.25082        -0.000000     -0.000000     -0.784012
      0.00000      0.00000     17.50164        -0.000000     -0.000000      0.324905
      1.43500      0.00000      8.03751         0.000000     -0.000000     -0.027739
      1.43500      0.00000     14.37623         0.000000      0.000000      0.023974
      1.43500      0.00000     20.62705        -0.000000     -0.000000      0.937642
 -----------------------------------------------------------------------------------
    total drift:                                0.000000     -0.000053      0.021003


--------------------------------------------------------------------------------------------------------



  FREE ENERGIE OF THE ION-ELECTRON SYSTEM (eV)
  ---------------------------------------------------
  free  energy   TOTEN  =      -250.62255078 eV

  energy  without entropy=     -250.63138906  energy(sigma->0) =     -250.62549687
 
 d Force =-0.3860644E-05[-0.209E-04, 0.132E-04]  d Energy = 0.1159760E-03-0.120E-03
 d Force =-0.1783056E+01[-0.178E+01,-0.178E+01]  d Ewald  =-0.1783056E+01 0.990E-08


--------------------------------------------------------------------------------------------------------


    POTLOK:  cpu time    0.17: real time    0.17


--------------------------------------------------------------------------------------------------------




--------------------------------------------------------------------------------------------------------


  
 reached required accuracy - stopping structural energy minimisation
     LOOP+:  cpu time    2.62: real time    5.55
    4ORBIT:  cpu time    0.00: real time    0.00

 total amount of memory used by VASP on root node    35401. kBytes
========================================================================

   base      :      30000. kBytes
   nonl-proj :       1196. kBytes
   fftplans  :        772. kBytes
   grid      :       2025. kBytes
   one-center:        155. kBytes
   wavefun   :       1253. kBytes
 
  
  
 General timing and accounting informations for this job:
 ========================================================
  
                  Total CPU time used (sec):      245.189
                            User time (sec):      244.100
                          System time (sec):        1.089
                         Elapsed time (sec):      331.216
  
                   Maximum memory used (kb):       88396.
                   Average memory used (kb):           0.
  
                          Minor page faults:        30876
                          Major page faults:            0
                 Voluntary context switches:        17326
