 vasp.5.3.3 18Dez12 (build May 12 2016 12:04:25) complex                        
  
 executed on             LinuxIFC date 2019.03.04  18:35:30
 running on   64 total cores
 distrk:  each k-point on   64 cores,    1 groups
 distr:  one band on NCORES_PER_BAND=   8 cores,    8 groups


--------------------------------------------------------------------------------------------------------


 INCAR:
 POTCAR:   PAW_PBE Mn 06Sep2000                   
 POTCAR:   PAW_PBE O_s 07Sep2000                  
 POTCAR:    PAW_PBE Li 17Jan2003                  
 POTCAR:   PAW_PBE Mn 06Sep2000                   
  local pseudopotential read in
  partial core-charges read in
  atomic valenz-charges read in
  non local Contribution for L=           2  read in
    real space projection operators read in
  non local Contribution for L=           2  read in
    real space projection operators read in
  non local Contribution for L=           0  read in
    real space projection operators read in
  non local Contribution for L=           0  read in
    real space projection operators read in
  non local Contribution for L=           1  read in
    real space projection operators read in
  non local Contribution for L=           1  read in
    real space projection operators read in
    PAW grid and wavefunctions read in
 
   number of l-projection  operators is LMAX  =           6
   number of lm-projection operators is LMMAX =          18
 
 POTCAR:   PAW_PBE O_s 07Sep2000                  
  local pseudopotential read in
  atomic valenz-charges read in
  non local Contribution for L=           0  read in
    real space projection operators read in
  non local Contribution for L=           0  read in
    real space projection operators read in
  non local Contribution for L=           1  read in
    real space projection operators read in
  non local Contribution for L=           1  read in
    real space projection operators read in
    PAW grid and wavefunctions read in
 
   number of l-projection  operators is LMAX  =           4
   number of lm-projection operators is LMMAX =           8
 
 POTCAR:    PAW_PBE Li 17Jan2003                  
  local pseudopotential read in
  partial core-charges read in
  atomic valenz-charges read in
  non local Contribution for L=           0  read in
    real space projection operators read in
  non local Contribution for L=           0  read in
    real space projection operators read in
  non local Contribution for L=           1  read in
    real space projection operators read in
    PAW grid and wavefunctions read in
 
   number of l-projection  operators is LMAX  =           3
   number of lm-projection operators is LMMAX =           5
 

 ----------------------------------------------------------------------------- 
|                                                                             |
|  ADVICE TO THIS USER RUNNING 'VASP/VAMP'   (HEAR YOUR MASTER'S VOICE ...):  |
|                                                                             |
|      You have a (more or less) 'large supercell' and for larger cells       |
|      it might be more efficient to use real space projection operators      |
|      So try LREAL= Auto  in the INCAR   file.                               |
|      Mind: If you want to do a very accurate calculations keep the          |
|      reciprocal projection scheme          (i.e. LREAL=.FALSE.)             |
|                                                                             |
 ----------------------------------------------------------------------------- 

 PAW_PBE Mn 06Sep2000                   :
 energy of atom  1       EATOM= -416.8732
 kinetic energy error for atom=    0.0088 (will be added to EATOM!!)
 PAW_PBE O_s 07Sep2000                  :
 energy of atom  2       EATOM= -432.2909
 kinetic energy error for atom=    0.0164 (will be added to EATOM!!)
  PAW_PBE Li 17Jan2003                  :
 energy of atom  3       EATOM=   -5.3001
 kinetic energy error for atom=    0.0000 (will be added to EATOM!!)
 
 
 POSCAR: Li Mn30 O62  (P1) ~ CONTCAR (VASP)      
  positions in direct lattice
  velocities in cartesian coordinates
 exchange correlation table for  LEXCH =        8
   RHO(1)=    0.500       N(1)  =     2000
   RHO(2)=  100.500       N(2)  =     4000
 


--------------------------------------------------------------------------------------------------------


 ion  position               nearest neighbor table
   1  0.077  0.259  0.620-  52 1.89  52 1.89  31 1.92  72 1.93  72 1.93  63 1.94  10 2.93  10 2.93

   2  0.058  0.256  0.526-  51 1.89  51 1.89  32 1.92  71 1.93  71 1.93  64 1.93   9 2.92   9 2.92

   3  0.948  0.750  0.216-  33 1.79  50 1.88  50 1.88  70 1.96  70 1.96  65 2.01   8 2.98   8 2.98

   4  0.049  0.252  0.432-  49 1.89  49 1.89  34 1.92  69 1.93  69 1.93  66 1.94   7 2.93   7 2.93

   5  0.978  0.750  0.312-  48 1.90  48 1.90  35 1.92  68 1.93  68 1.93  67 1.95   6 2.94   6 2.94

   6  0.028  0.251  0.338-  47 1.90  47 1.90  36 1.92  67 1.93  67 1.93  68 1.95   5 2.94   5 2.94

   7  0.969  0.752  0.407-  46 1.89  46 1.89  37 1.92  66 1.93  66 1.93  69 1.94   4 2.93   4 2.93

   8  0.031  0.250  0.242-  45 1.90  45 1.90  65 1.92  65 1.92  70 1.93  38 1.94   3 2.98   3 2.98

   9  0.954  0.755  0.501-  44 1.89  44 1.89  39 1.92  64 1.93  64 1.93  71 1.94   2 2.92   2 2.92

  10  0.961  0.758  0.595-  43 1.89  43 1.89  40 1.91  63 1.93  63 1.93  72 1.93   1 2.93   1 2.93

  11  0.457  0.261  0.666-  41 1.89  41 1.89  42 1.93  62 1.93  62 1.93  53 1.93  20 2.93  20 2.94

  12  0.460  0.257  0.573-  40 1.89  40 1.89  43 1.92  61 1.93  61 1.93  54 1.93  19 2.92  19 2.92

  13  0.454  0.254  0.479-  39 1.89  39 1.89  44 1.91  60 1.93  60 1.93  55 1.94  18 2.92  18 2.93

  14  0.533  0.750  0.264-  38 1.90  38 1.90  45 1.92  59 1.93  59 1.93  56 1.95  17 2.94  17 2.94

  15  0.468  0.252  0.385-  37 1.90  37 1.90  46 1.92  58 1.93  58 1.93  57 1.95  16 2.93  16 2.93

  16  0.528  0.751  0.360-  36 1.90  36 1.90  47 1.92  57 1.93  57 1.93  58 1.95  15 2.93  15 2.93

  17  0.478  0.250  0.290-  35 1.90  35 1.90  48 1.93  56 1.93  56 1.93  59 1.95  14 2.94  14 2.94

  18  0.549  0.753  0.454-  34 1.89  34 1.89  49 1.91  55 1.93  55 1.93  60 1.94  13 2.92  13 2.93

  19  0.559  0.756  0.548-  32 1.89  32 1.89  51 1.91  54 1.93  54 1.93  61 1.93  12 2.92  12 2.92

  20  0.577  0.760  0.641-  31 1.89  31 1.89  52 1.91  53 1.93  53 1.93  62 1.94  11 2.93  11 2.94

  21  0.954  0.762  0.688-  78 1.90  78 1.90  42 1.90  42 1.90  41 1.92  88 1.94
  22  0.955  0.763  0.732-  83 1.90  83 1.90  79 1.91  79 1.91  73 1.92  89 1.95
  23  0.969  0.764  0.778-  80 1.92  80 1.92  84 1.92  84 1.92  90 2.04  74 2.04  93 2.68  93 2.68
                            93 2.69  93 2.69
  24  0.991  0.766  0.825-  81 1.89  81 1.89  85 1.92  85 1.92  91 1.92  75 1.98
  25  0.004  0.767  0.870-  92 1.89  82 1.91  82 1.91  86 1.91  86 1.91  76 2.00
  26  0.457  0.263  0.710-  88 1.90  88 1.90  73 1.91  73 1.91  78 1.92  83 1.94
  27  0.457  0.264  0.754-  89 1.88  89 1.88  79 1.92  74 1.98  74 1.98  84 2.03  93 2.45
  28  0.484  0.265  0.803-  75 1.88  75 1.88  85 1.91  90 1.99  90 1.99  80 2.03  93 2.45
  29  0.490  0.266  0.847-  76 1.90  76 1.90  86 1.91  91 1.92  91 1.92  81 1.95
  30  0.481  0.267  0.892-  87 1.81  77 1.88  77 1.88  92 1.92  92 1.93  82 2.02
  31  0.407  0.260  0.632-  20 1.89  20 1.89   1 1.92
  32  0.376  0.256  0.539-  19 1.89  19 1.89   2 1.92
  33  0.637  0.750  0.205-   3 1.79
  34  0.358  0.253  0.445-  18 1.89  18 1.89   4 1.92
  35  0.691  0.750  0.298-  17 1.90  17 1.90   5 1.92
  36  0.315  0.251  0.352-  16 1.90  16 1.90   6 1.92
  37  0.672  0.752  0.393-  15 1.90  15 1.90   7 1.92
  38  0.325  0.250  0.256-  14 1.90  14 1.90   8 1.94
  39  0.637  0.754  0.488-  13 1.89  13 1.89   9 1.92
  40  0.639  0.757  0.582-  12 1.89  12 1.89  10 1.91
  41  0.627  0.761  0.676-  11 1.89  11 1.89  21 1.92
  42  0.120  0.262  0.678-  21 1.90  21 1.90  11 1.93
  43  0.139  0.258  0.585-  10 1.89  10 1.89  12 1.92
  44  0.137  0.255  0.492-   9 1.89   9 1.89  13 1.91
  45  0.827  0.750  0.250-   8 1.90   8 1.90  14 1.92
  46  0.172  0.252  0.399-   7 1.89   7 1.89  15 1.92
  47  0.815  0.751  0.345-   6 1.90   6 1.90  16 1.92
  48  0.192  0.250  0.304-   5 1.90   5 1.90  17 1.93
  49  0.858  0.753  0.441-   4 1.89   4 1.89  18 1.91
  50  0.131  0.250  0.207-   3 1.88   3 1.88
  51  0.876  0.756  0.535-   2 1.89   2 1.89  19 1.91
  52  0.908  0.759  0.629-   1 1.89   1 1.89  20 1.91
  53  0.741  0.260  0.652-  20 1.93  20 1.93  11 1.93
  54  0.734  0.257  0.558-  19 1.93  19 1.93  12 1.93
  55  0.726  0.253  0.464-  18 1.93  18 1.93  13 1.94
  56  0.286  0.750  0.280-  17 1.93  17 1.93  14 1.95
  57  0.718  0.251  0.369-  16 1.93  16 1.93  15 1.95
  58  0.279  0.751  0.375-  15 1.93  15 1.93  16 1.95
  59  0.724  0.250  0.274-  14 1.93  14 1.93  17 1.95
  60  0.278  0.754  0.469-  13 1.93  13 1.93  18 1.94
  61  0.286  0.757  0.563-  12 1.93  12 1.93  19 1.93
  62  0.291  0.761  0.656-  11 1.93  11 1.93  20 1.94
  63  0.793  0.258  0.605-  10 1.93  10 1.93   1 1.94
  64  0.782  0.255  0.511-   9 1.93   9 1.93   2 1.93
  65  0.214  0.750  0.232-   8 1.92   8 1.92   3 2.01
  66  0.786  0.252  0.417-   7 1.93   7 1.93   4 1.94
  67  0.221  0.751  0.328-   6 1.93   6 1.93   5 1.95
  68  0.785  0.251  0.321-   5 1.93   5 1.93   6 1.95
  69  0.230  0.752  0.422-   4 1.93   4 1.93   7 1.94
  70  0.770  0.250  0.227-   8 1.93   3 1.96   3 1.96
  71  0.231  0.755  0.516-   2 1.93   2 1.93   9 1.94
  72  0.243  0.759  0.609-   1 1.93   1 1.93  10 1.93
  73  0.619  0.763  0.720-  26 1.91  26 1.91  22 1.92
  74  0.621  0.764  0.765-  27 1.98  27 1.98  23 2.04  93 2.06  93 2.06
  75  0.657  0.765  0.812-  28 1.88  28 1.88  24 1.98
  76  0.662  0.766  0.857-  29 1.90  29 1.90  25 2.00
  77  0.628  0.767  0.902-  30 1.88  30 1.88
  78  0.792  0.262  0.698-  21 1.90  21 1.90  26 1.92
  79  0.795  0.264  0.742-  22 1.91  22 1.91  27 1.92
  80  0.803  0.265  0.789-  93 1.84  23 1.92  23 1.92  28 2.03
  81  0.818  0.266  0.835-  24 1.89  24 1.89  29 1.95
  82  0.843  0.267  0.880-  25 1.91  25 1.91  30 2.02
  83  0.122  0.263  0.722-  22 1.90  22 1.90  26 1.94
  84  0.134  0.264  0.768-  93 1.84  23 1.92  23 1.92  27 2.03
  85  0.150  0.266  0.815-  28 1.91  24 1.92  24 1.92
  86  0.157  0.267  0.859-  29 1.91  25 1.91  25 1.91
  87  0.149  0.264  0.902-  30 1.81
  88  0.292  0.763  0.700-  26 1.90  26 1.90  21 1.94
  89  0.289  0.764  0.744-  27 1.88  27 1.88  22 1.95
  90  0.317  0.765  0.791-  28 1.99  28 1.99  23 2.04  93 2.05  93 2.05
  91  0.322  0.766  0.837-  29 1.92  29 1.92  24 1.92
  92  0.345  0.767  0.880-  25 1.89  30 1.92  30 1.93
  93  0.468  0.264  0.778-  80 1.84  84 1.84  90 2.05  90 2.05  74 2.06  74 2.06  27 2.45  28 2.45
                            23 2.68  23 2.68  23 2.69  23 2.69
 
  LATTYP: Found a simple orthorhombic cell.
 ALAT       =     2.8659999400
 B/A-ratio  =     1.5816469242
 C/A-ratio  =    34.8918360410
  
  Lattice vectors:
  
 A1 = (   0.0000000000,  -2.8659999400,   0.0000000000)
 A2 = (  -4.5329999900,   0.0000000000,   0.0000000000)
 A3 = (   0.0000000000,   0.0000000000,-100.0000000000)


Analysis of symmetry for initial positions (statically):
=====================================================================
 Subroutine PRICEL returns:
 Original cell was already a primitive cell.
 

 Routine SETGRP: Setting up the symmetry group for a 
 simple orthorhombic supercell.


 Subroutine GETGRP returns: Found  1 space group operations
 (whereof  1 operations were pure point group operations)
 out of a pool of  8 trial point group operations.


The static configuration has the point symmetry C_1 .


Analysis of symmetry for dynamics (positions and initial velocities):
=====================================================================
 Subroutine PRICEL returns:
 Original cell was already a primitive cell.
 

 Routine SETGRP: Setting up the symmetry group for a 
 simple orthorhombic supercell.


 Subroutine GETGRP returns: Found  1 space group operations
 (whereof  1 operations were pure point group operations)
 out of a pool of  8 trial point group operations.


The dynamic configuration has the point symmetry C_1 .


Analysis of magnetic symmetry:
=====================================================================

 Subroutine MAGSYM returns: Found  1 space group operations
 (whereof  1 operations were pure point group operations)
 out of a pool of  1 trial space group operations
 (whereof  1 operations were pure point group operations)
 and found also     1 'primitive' translations


The magnetic configuration has the point symmetry C_1 .


 irot  :   1
 --------------------------------------------------------------------
 isymop:   1   0   0
           0   1   0
           0   0   1

 gtrans:     0.0000000     0.0000000     0.0000000

 ptrans:     0.0000000     0.0000000     0.0000000
 rotmap:
 (   1->   1)  (   2->   2)  (   3->   3)  (   4->   4)  (   5->   5) 
 (   6->   6)  (   7->   7)  (   8->   8)  (   9->   9)  (  10->  10) 
 (  11->  11)  (  12->  12)  (  13->  13)  (  14->  14)  (  15->  15) 
 (  16->  16)  (  17->  17)  (  18->  18)  (  19->  19)  (  20->  20) 
 (  21->  21)  (  22->  22)  (  23->  23)  (  24->  24)  (  25->  25) 
 (  26->  26)  (  27->  27)  (  28->  28)  (  29->  29)  (  30->  30) 
 (  31->  31)  (  32->  32)  (  33->  33)  (  34->  34)  (  35->  35) 
 (  36->  36)  (  37->  37)  (  38->  38)  (  39->  39)  (  40->  40) 
 (  41->  41)  (  42->  42)  (  43->  43)  (  44->  44)  (  45->  45) 
 (  46->  46)  (  47->  47)  (  48->  48)  (  49->  49)  (  50->  50) 
 (  51->  51)  (  52->  52)  (  53->  53)  (  54->  54)  (  55->  55) 
 (  56->  56)  (  57->  57)  (  58->  58)  (  59->  59)  (  60->  60) 
 (  61->  61)  (  62->  62)  (  63->  63)  (  64->  64)  (  65->  65) 
 (  66->  66)  (  67->  67)  (  68->  68)  (  69->  69)  (  70->  70) 
 (  71->  71)  (  72->  72)  (  73->  73)  (  74->  74)  (  75->  75) 
 (  76->  76)  (  77->  77)  (  78->  78)  (  79->  79)  (  80->  80) 
 (  81->  81)  (  82->  82)  (  83->  83)  (  84->  84)  (  85->  85) 
 (  86->  86)  (  87->  87)  (  88->  88)  (  89->  89)  (  90->  90) 
 (  91->  91)  (  92->  92)  (  93->  93) 
 
 
 KPOINTS: Automatic mesh                          

Automatic generation of k-mesh.
Space group operators:
 irot       det(A)        alpha          n_x          n_y          n_z        tau_x        tau_y        tau_z
    1     1.000000     0.000000     1.000000     0.000000     0.000000     0.000000     0.000000     0.000000
 
 Subroutine IBZKPT returns following result:
 ===========================================
 
 Found      4 irreducible k-points:
 
 Following reciprocal coordinates:
            Coordinates               Weight
  0.000000  0.000000  0.000000      1.000000
  0.500000  0.000000  0.000000      1.000000
  0.000000  0.333333  0.000000      2.000000
  0.500000  0.333333  0.000000      2.000000
 
 Following cartesian coordinates:
            Coordinates               Weight
  0.000000  0.000000  0.000000      1.000000
  0.110302  0.000000  0.000000      1.000000
  0.000000  0.116306  0.000000      2.000000
  0.110302  0.116306  0.000000      2.000000
 
 TETIRR: Found     15 inequivalent tetrahedra from       36


--------------------------------------------------------------------------------------------------------




 Dimension of arrays:
   k-points           NKPTS =      4   k-points in BZ     NKDIM =      4   number of bands    NBANDS=    416
   number of dos      NEDOS =    301   number of ions     NIONS =     93
   non local maximal  LDIM  =      6   non local SUM 2l+1 LMDIM =     18
   total plane-waves  NPLWV = 164640
   max r-space proj   IRMAX =      1   max aug-charges    IRDMAX=   4858
   dimension x,y,z NGX =    24 NGY =   14 NGZ =  490
   dimension x,y,z NGXF=    48 NGYF=   28 NGZF=  980
   support grid    NGXF=    48 NGYF=   28 NGZF=  980
   ions per type =              30  62   1
 NGX,Y,Z   is equivalent  to a cutoff of   8.80,  8.12,  8.15 a.u.
 NGXF,Y,Z  is equivalent  to a cutoff of  17.60, 16.24, 16.29 a.u.


 I would recommend the setting:
   dimension x,y,z NGX =    22 NGY =   14 NGZ =  489
 SYSTEM =  unknown system                          
 POSCAR =  Li Mn30 O62  (P1) ~ CONTCAR (VASP)      

 Startparameter for this run:
   NWRITE =      1    write-flag & timer
   PREC   = normal    normal or accurate (medium, high low for compatibility)
   ISTART =      0    job   : 0-new  1-cont  2-samecut
   ICHARG =      2    charge: 1-file 2-atom 10-const
   ISPIN  =      2    spin polarized calculation?
   LNONCOLLINEAR =      F non collinear calculations
   LSORBIT =      F    spin-orbit coupling
   INIWAV =      1    electr: 0-lowe 1-rand  2-diag
   LASPH  =      F    aspherical Exc in radial PAW
   METAGGA=      F    non-selfconsistent MetaGGA calc.

 Electronic Relaxation 1
   ENCUT  =  400.0 eV  29.40 Ry    5.42 a.u.   7.39  4.67163.07*2*pi/ulx,y,z
   ENINI  =  400.0     initial cutoff
   ENAUG  =  500.7 eV  augmentation charge cutoff
   NELM   =     60;   NELMIN=  2; NELMDL= -5     # of ELM steps 
   EDIFF  = 0.1E-03   stopping-criterion for ELM
   LREAL  =      F    real-space projection
   NLSPLINE    = F    spline interpolate recip. space projectors
   LCOMPAT=      F    compatible to vasp.4.4
   GGA_COMPAT  = T    GGA compatible to vasp.4.4-vasp.4.6
   LMAXPAW     = -100 max onsite density
   LMAXMIX     =    4 max onsite mixed and CHGCAR
   VOSKOWN=      1    Vosko Wilk Nusair interpolation
   ROPT   =    0.00000   0.00000   0.00000
 Ionic relaxation
   EDIFFG = 0.1E-02   stopping-criterion for IOM
   NSW    =      0    number of steps for IOM
   NBLOCK =      1;   KBLOCK =      1    inner block; outer block 
   IBRION =     -1    ionic relax: 0-MD 1-quasi-New 2-CG
   NFREE  =      0    steps in history (QN), initial steepest desc. (CG)
   ISIF   =      2    stress and relaxation
   IWAVPR =     10    prediction:  0-non 1-charg 2-wave 3-comb
   ISYM   =      2    0-nonsym 1-usesym 2-fastsym
   LCORR  =      T    Harris-Foulkes like correction to forces

   POTIM  = 0.5000    time-step for ionic-motion
   TEIN   =    0.0    initial temperature
   TEBEG  =    0.0;   TEEND  =   0.0 temperature during run
   SMASS  =  -3.00    Nose mass-parameter (am)
   estimated Nose-frequenzy (Omega)   =  0.10E-29 period in steps =****** mass=  -0.470E-27a.u.
   SCALEE = 1.0000    scale energy and forces
   NPACO  =    256;   APACO  = 16.0  distance and # of slots for P.C.
   PSTRESS=    0.0 pullay stress

  Mass of Ions in am
   POMASS =  54.94 16.00  7.01
  Ionic Valenz
   ZVAL   =   7.00  6.00  1.00
  Atomic Wigner-Seitz radii
   RWIGS  =  -1.00 -1.00 -1.00
  virtual crystal weights 
   VCA    =   1.00  1.00  1.00
   NELECT =     583.0000    total number of electrons
   NUPDOWN=      -1.0000    fix difference up-down

 DOS related values:
   EMIN   =  10.00;   EMAX   =-10.00  energy-range for DOS
   EFERMI =   0.00
   ISMEAR =    -5;   SIGMA  =   0.20  broadening in eV -4-tet -1-fermi 0-gaus

 Electronic relaxation 2 (details)
   IALGO  =     38    algorithm
   LDIAG  =      T    sub-space diagonalisation (order eigenvalues)
   LSUBROT=      T    optimize rotation matrix (better conditioning)
   TURBO    =      0    0=normal 1=particle mesh
   IRESTART =      0    0=no restart 2=restart with 2 vectors
   NREBOOT  =      0    no. of reboots
   NMIN     =      0    reboot dimension
   EREF     =   0.00    reference energy to select bands
   IMIX   =      4    mixing-type and parameters
     AMIX     =   0.40;   BMIX     =  1.00
     AMIX_MAG =   1.60;   BMIX_MAG =  1.00
     AMIN     =   0.01
     WC   =   100.;   INIMIX=   1;  MIXPRE=   1;  MAXMIX= -45

 Intra band minimization:
   WEIMIN = 0.0000     energy-eigenvalue tresh-hold
   EBREAK =  0.60E-07  absolut break condition
   DEPER  =   0.30     relativ break condition  

   TIME   =   0.40     timestep for ELM

  volume/ion in A,a.u.               =      13.97        94.27
  Fermi-wavevector in a.u.,A,eV,Ry     =   1.253364  2.368514 21.373666  1.570920
  Thomas-Fermi vector in A             =   2.387220
 
 Write flags
   LWAVE  =      F    write WAVECAR
   LCHARG =      F    write CHGCAR
   LVTOT  =      F    write LOCPOT, total local potential
   LVHAR  =      F    write LOCPOT, Hartree potential only
   LELF   =      F    write electronic localiz. function (ELF)
   LORBIT =      0    0 simple, 1 ext, 2 COOP (PROOUT)


 Dipole corrections
   LMONO  =      F    monopole corrections only (constant potential shift)
   LDIPOL =      F    correct potential (dipole corrections)
   IDIPOL =      0    1-x, 2-y, 3-z, 4-all directions 
   EPSILON=  1.0000000 bulk dielectric constant

 LDA+U is selected, type is set to LDAUTYPE =  2
   angular momentum for each species LDAUL =     2   -1    0
   U (eV)           for each species LDAUU =   3.9  0.0  1.0
   J (eV)           for each species LDAUJ =   0.0  0.0  0.0
 Exchange correlation treatment:
   GGA     =    --    GGA type
   LEXCH   =     8    internal setting for exchange type
   VOSKOWN=      1    Vosko Wilk Nusair interpolation
   LHFCALC =     F    Hartree Fock is set to
   LHFONE  =     F    Hartree Fock one center treatment
   AEXX    =    0.0000 exact exchange contribution

 Linear response parameters
   LEPSILON=     F    determine dielectric tensor
   LRPA    =     F    only Hartree local field effects (RPA)
   LNABLA  =     F    use nabla operator in PAW spheres
   LVEL    =     F    velocity operator in full k-point grid
   LINTERFAST=   F  fast interpolation
   KINTER  =     0    interpolate to denser k-point grid
   CSHIFT  =0.1000    complex shift for real part using Kramers Kronig
   OMEGAMAX=  -1.0    maximum frequency
   DEG_THRESHOLD= 0.2000000E-02 threshold for treating states as degnerate
   RTIME   =    0.100 relaxation time in fs

 Orbital magnetization related:
   ORBITALMAG=     F  switch on orbital magnetization
   LCHIMAG   =     F  perturbation theory with respect to B field
   DQ        =  0.001000  dq finite difference perturbation B field



--------------------------------------------------------------------------------------------------------


 Static calculation
 charge density and potential will be updated during run
 spin polarized calculation
 Variant of blocked Davidson
 Davidson routine will perform the subspace rotation
 perform sub-space diagonalisation
    after iterative eigenvector-optimisation
 modified Broyden-mixing scheme, WC =      100.0
 initial mixing is a Kerker type mixing with AMIX =  0.4000 and BMIX =      1.0000
 Hartree-type preconditioning will be used
 using additional bands          124
 reciprocal scheme for non local part
 use partial core corrections
 calculate Harris-corrections to forces 
   (improved forces if not selfconsistent)
 use gradient corrections 
 use of overlap-Matrix (Vanderbilt PP)
 Fermi weights with tetrahedron method with Bloechl corrections


--------------------------------------------------------------------------------------------------------


  energy-cutoff  :      400.00
  volume of cell :     1299.16
      direct lattice vectors                 reciprocal lattice vectors
     4.532999990  0.000000000  0.000000000     0.220604457  0.000000000  0.000000000
     0.000000000  2.865999940  0.000000000     0.000000000  0.348918360  0.000000000
     0.000000000  0.000000000100.000000000     0.000000000  0.000000000  0.010000000

  length of vectors
     4.532999990  2.865999940100.000000000     0.220604457  0.348918360  0.010000000


 
 k-points in units of 2pi/SCALE and weight: Automatic mesh                          
   0.00000000  0.00000000  0.00000000       0.167
   0.11030223  0.00000000  0.00000000       0.167
   0.00000000  0.11630612  0.00000000       0.333
   0.11030223  0.11630612  0.00000000       0.333
 
 k-points in reciprocal lattice and weights: Automatic mesh                          
   0.00000000  0.00000000  0.00000000       0.167
   0.50000000  0.00000000  0.00000000       0.167
   0.00000000  0.33333333  0.00000000       0.333
   0.50000000  0.33333333  0.00000000       0.333
 
 position of ions in fractional coordinates (direct lattice) 
   0.07656256  0.25875430  0.61963953
   0.05813310  0.25554998  0.52609023
   0.94829135  0.74978073  0.21618183
   0.04900941  0.25246523  0.43230015
   0.97798227  0.75048067  0.31198759
   0.02793867  0.25074195  0.33756595
   0.96888824  0.75196141  0.40703428
   0.03111147  0.24985378  0.24206946
   0.95419158  0.75477268  0.50107956
   0.96076826  0.75800138  0.59465934
   0.45655970  0.26090402  0.66627713
   0.45993064  0.25713910  0.57292537
   0.45404357  0.25385393  0.47930327
   0.53291661  0.75002494  0.26430388
   0.46828511  0.25150990  0.38503800
   0.52759000  0.75115608  0.35959054
   0.47794450  0.25019327  0.28988036
   0.54909510  0.75315675  0.45417883
   0.55923765  0.75639676  0.54785805
   0.57721682  0.75991044  0.64126363
   0.95444256  0.76191322  0.68807615
   0.95526120  0.76339779  0.73195204
   0.96914130  0.76445942  0.77834766
   0.99059312  0.76564079  0.82499321
   0.00402137  0.76663781  0.86952940
   0.45669443  0.26270481  0.70998854
   0.45666581  0.26399743  0.75389006
   0.48392495  0.26502766  0.80285745
   0.48960508  0.26613978  0.84722958
   0.48095030  0.26699725  0.89165284
   0.40740577  0.25967614  0.63162802
   0.37619014  0.25622986  0.53873937
   0.63734569  0.74974313  0.20512351
   0.35841769  0.25303722  0.44538594
   0.69128459  0.75023448  0.29779034
   0.31504947  0.25108799  0.35169737
   0.67226525  0.75158268  0.39334695
   0.32519409  0.24999919  0.25612393
   0.63653470  0.75399997  0.48845233
   0.63938869  0.75726677  0.58225596
   0.62701751  0.76110442  0.67589047
   0.12031796  0.26175185  0.67806712
   0.13876662  0.25784936  0.58538826
   0.13654326  0.25459707  0.49191838
   0.82667531  0.74989237  0.25043887
   0.17188277  0.25187913  0.39875253
   0.81506671  0.75080663  0.34546453
   0.19201085  0.25042633  0.30415082
   0.85811996  0.75257768  0.44112827
   0.13126196  0.24974298  0.20724279
   0.87633594  0.75570009  0.53527726
   0.90776709  0.75894364  0.62936987
   0.74138997  0.26008223  0.65188320
   0.73362418  0.25652021  0.55811509
   0.72594089  0.25326952  0.46435508
   0.28639409  0.75015096  0.28031064
   0.71790320  0.25121193  0.36920839
   0.27884167  0.75143585  0.37544320
   0.72405908  0.25004939  0.27393629
   0.27838995  0.75371464  0.46914212
   0.28610335  0.75698724  0.56270526
   0.29125007  0.76072967  0.65569435
   0.79281096  0.25809287  0.60517479
   0.78161221  0.25490367  0.51136475
   0.21374013  0.74980405  0.23226679
   0.78622110  0.25205029  0.41695853
   0.22083845  0.75068583  0.32808385
   0.78469047  0.25052176  0.32149876
   0.23027713  0.75234997  0.42238760
   0.76955700  0.24981694  0.22678562
   0.23064220  0.75540447  0.51582931
   0.24294149  0.75860522  0.60917401
   0.61933402  0.76283049  0.72018502
   0.62146071  0.76414353  0.76534366
   0.65667458  0.76514226  0.81226324
   0.66220010  0.76620887  0.85694565
   0.62832022  0.76681855  0.90189287
   0.79205986  0.26205044  0.69818111
   0.79520331  0.26351892  0.74230884
   0.80342501  0.26453695  0.78868873
   0.81765774  0.26570678  0.83457847
   0.84250302  0.26675147  0.87978409
   0.12208853  0.26328390  0.72207700
   0.13382110  0.26439281  0.76791865
   0.15042533  0.26550485  0.81453764
   0.15657547  0.26658966  0.85893915
   0.14868448  0.26420754  0.90165551
   0.29210398  0.76255876  0.70000632
   0.28864112  0.76389776  0.74430765
   0.31650705  0.76481515  0.79135900
   0.32247906  0.76600557  0.83698403
   0.34481564  0.76684298  0.88037726
   0.46794530  0.26444427  0.77837214
 
 position of ions in cartesian coordinates  (Angst):
   0.34705808  0.74158981 61.96395262
   0.26351736  0.73240622 52.60902289
   4.29860467  2.14887153 21.61818269
   0.22215967  0.72356533 43.23001495
   4.43319362  2.15087755 31.19875948
   0.12664601  0.71862642 33.75659460
   4.39197039  2.15512134 40.70342819
   0.14102827  0.71608093 24.20694583
   4.32535044  2.16317844 50.10795630
   4.35516250  2.17243191 59.46593433
   2.06958510  0.74775089 66.62771294
   2.08486561  0.73696066 57.29253703
   2.05817951  0.72754534 47.93032695
   2.41571098  2.14957144 26.43038843
   2.12273641  0.72082735 38.50380039
   2.39156548  2.15281329 35.95905400
   2.16652243  0.71705389 28.98803569
   2.48904810  2.15854721 45.41788286
   2.53502425  2.16783308 54.78580472
   2.61652385  2.17790328 64.12636329
   4.32648814  2.18364324 68.80761544
   4.33019901  2.18789802 73.19520381
   4.39311751  2.19094065 77.83476562
   4.49035859  2.19432646 82.49932130
   0.01822887  2.19718390 86.95294023
   2.07019584  0.75291196 70.99885394
   2.07006612  0.75661663 75.38900576
   2.19363177  0.75956926 80.28574463
   2.21937984  0.76275659 84.72295847
   2.18014770  0.76521411 89.16528351
   1.84677037  0.74423181 63.16280194
   1.70526992  0.73435476 53.87393725
   2.88908800  2.14876376 20.51235059
   1.62470739  0.72520465 44.53859392
   3.13359306  2.15017198 29.77903405
   1.42811924  0.71961817 35.16973708
   3.04737839  2.15403593 39.33469451
   1.47410483  0.71649766 25.61239267
   2.88541179  2.16096387 48.84523307
   2.89834893  2.17032652 58.22559644
   2.84227038  2.18132523 67.58904708
   0.54540130  0.75018078 67.80671169
   0.62902910  0.73899625 58.53882581
   0.61895061  0.72967519 49.19183781
   3.74731919  2.14919149 25.04388748
   0.77914461  0.72188558 39.87525312
   3.69469740  2.15181175 34.54645260
   0.87038519  0.71772185 30.41508242
   3.88985775  2.15688758 44.11282714
   0.59501047  0.71576337 20.72427876
   3.97243080  2.16583641 53.52772618
   4.11490823  2.17513243 62.93698695
   3.36072074  0.74539565 65.18832049
   3.32551838  0.73518690 55.81150944
   3.29069006  0.72587042 46.43550832
   1.29822441  2.14993262 28.03106385
   3.25425522  0.71997337 36.92083936
   1.26398927  2.15361511 37.54432045
   3.28215982  0.71664155 27.39362906
   1.26194163  2.16014611 46.91421180
   1.29690647  2.16952540 56.27052572
   1.32023655  2.18025118 65.56943531
   3.59381209  0.73969415 60.51747928
   3.54304815  0.73055391 51.13647536
   0.96888401  2.14893835 23.22667942
   3.56394022  0.72237612 41.69585336
   1.00106070  2.15146554 32.80838521
   3.55700188  0.71799534 32.14987585
   1.04384622  2.15623497 42.23876010
   3.48840189  0.71597534 22.67856170
   1.04550108  2.16498917 51.58293102
   1.10125379  2.17416252 60.91740126
   2.80744113  2.18627213 72.01850166
   2.81708139  2.19003532 76.53436562
   2.97670586  2.19289767 81.22632362
   3.00175306  2.19595457 85.69456466
   2.84817554  2.19770192 90.18928658
   3.59040734  0.75103655 69.81811090
   3.60465661  0.75524522 74.23088409
   3.64192555  0.75816288 78.86887328
   3.70644252  0.76151562 83.45784688
   3.81906617  0.76450971 87.97840921
   0.55342732  0.75457165 72.20769956
   0.60661104  0.75774977 76.79186496
   0.68187800  0.76093689 81.45376367
   0.70975662  0.76404596 85.89391516
   0.67398676  0.75721881 90.16555144
   1.32410732  2.18549337 70.00063248
   1.30841021  2.18933093 74.43076505
   1.43472644  2.19196017 79.13590026
   1.46179760  2.19537192 83.69840283
   1.56304931  2.19777195 88.03772631
   2.12119606  0.75789727 77.83721398
 


--------------------------------------------------------------------------------------------------------


 k-point  1 :   0.0000 0.0000 0.0000  plane waves:   23717
 k-point  2 :   0.5000 0.0000 0.0000  plane waves:   23738
 k-point  3 :   0.0000 0.3333 0.0000  plane waves:   23596
 k-point  4 :   0.5000 0.3333 0.0000  plane waves:   23470

 maximum and minimum number of plane-waves per node :      2998     2921

 maximum number of plane-waves:     23738
 maximum index in each direction: 
   IXMAX=    7   IYMAX=    4   IZMAX=  163
   IXMIN=   -7   IYMIN=   -5   IZMIN= -163

 WARNING: aliasing errors must be expected set NGX to  30 to avoid them
 WARNING: aliasing errors must be expected set NGY to  20 to avoid them
 WARNING: aliasing errors must be expected set NGZ to 654 to avoid them
 aliasing errors are usually negligible using standard VASP settings
 and one can safely disregard these warnings

 parallel 3D FFT for wavefunctions:
    minimum data exchange during FFTs selected (reduces bandwidth)
 parallel 3D FFT for charge:
    minimum data exchange during FFTs selected (reduces bandwidth)


 total amount of memory used by VASP on root node    66181. kBytes
========================================================================

   base      :      30000. kBytes
   nonl-proj :       9545. kBytes
   fftplans  :       1537. kBytes
   grid      :       4066. kBytes
   one-center:        373. kBytes
   wavefun   :      20660. kBytes
 
 Broyden mixing: mesh for mixing (old mesh)
   NGX = 15   NGY =  9   NGZ =327
  (NGX  = 48   NGY  = 28   NGZ  =980)
  gives a total of  44145 points

 initial charge density was supplied:
 charge density of overlapping atoms calculated
 number of electron     583.0000000 magnetization     120.0000000
 keeping initial charge density in first step


--------------------------------------------------------------------------------------------------------


 Maximum index for augmentation-charges          317 (set IRDMAX)


--------------------------------------------------------------------------------------------------------


 First call to EWALD:  gamma=   0.162
 Maximum number of real-space cells 6x 9x 1
 Maximum number of reciprocal cells 1x 1x21

 FEWALD executed in parallel
    FEWALD:  cpu time    0.00: real time    0.00


----------------------------------------- Iteration    1(   1)  ---------------------------------------


    POTLOK:  cpu time    0.07: real time    0.07
    SETDIJ:  cpu time    0.01: real time    0.01
     EDDAV:  cpu time   12.16: real time   12.19
 BZINTS: Fermi energy: 18.952849;583.000000 electrons
         Band energy:4208.806579;  BLOECHL correction: -0.938655
       DOS:  cpu time    0.01: real time    0.01
    --------------------------------------------
      LOOP:  cpu time   12.26: real time   12.77

 eigenvalue-minimisations  :  6744
 total energy-change (2. order) : 0.7562045E+04  (-0.2142177E+05)
 number of electron     583.0000000 magnetization     120.0000000
 augmentation part      583.0000000 magnetization     120.0000000

 Free energy of the ion-electron system (eV)
  ---------------------------------------------------
  alpha Z        PSCENC =      1567.40908688
  Ewald energy   TEWEN  =   1601046.08035484
  -1/2 Hartree   DENC   =  -1640366.01073812
  -exchange  EXHF       =         0.00000000
  -V(xc)+E(xc)   XCENC  =      1386.26036701
  PAW double counting   =     27858.91048155   -27451.65979283
  entropy T*S    EENTRO =         0.00000000
  eigenvalues    EBANDS =      4208.80657894
  atomic energy  EATOM  =     39312.24856084
  ---------------------------------------------------
  free energy    TOTEN  =      7562.04489910 eV

  energy without entropy =     7562.04489910  energy(sigma->0) =     7562.04489910


--------------------------------------------------------------------------------------------------------




----------------------------------------- Iteration    1(   2)  ---------------------------------------


     EDDAV:  cpu time   12.38: real time   12.39
 BZINTS: Fermi energy:  5.426278;583.000000 electrons
         Band energy:***********;  BLOECHL correction: -0.203534
       DOS:  cpu time    0.01: real time    0.01
    --------------------------------------------
      LOOP:  cpu time   12.39: real time   13.64

 eigenvalue-minimisations  :  6912
 total energy-change (2. order) :-0.7149636E+04  (-0.6461446E+04)
 number of electron     583.0000000 magnetization     120.0000000
 augmentation part      583.0000000 magnetization     120.0000000

 Free energy of the ion-electron system (eV)
  ---------------------------------------------------
  alpha Z        PSCENC =      1567.40908688
  Ewald energy   TEWEN  =   1601046.08035484
  -1/2 Hartree   DENC   =  -1640366.01073812
  -exchange  EXHF       =         0.00000000
  -V(xc)+E(xc)   XCENC  =      1386.26036701
  PAW double counting   =     27858.91048155   -27451.65979283
  entropy T*S    EENTRO =         0.00000000
  eigenvalues    EBANDS =     -2940.82983613
  atomic energy  EATOM  =     39312.24856084
  ---------------------------------------------------
  free energy    TOTEN  =       412.40848403 eV

  energy without entropy =      412.40848403  energy(sigma->0) =      412.40848403


--------------------------------------------------------------------------------------------------------




----------------------------------------- Iteration    1(   3)  ---------------------------------------


     EDDAV:  cpu time   12.55: real time   12.56
 BZINTS: Fermi energy:  2.354873;583.000000 electrons
         Band energy:***********;  BLOECHL correction: -0.118918
       DOS:  cpu time    0.01: real time    0.01
    --------------------------------------------
      LOOP:  cpu time   12.57: real time   13.35

 eigenvalue-minimisations  :  7032
 total energy-change (2. order) :-0.1212283E+04  (-0.1116212E+04)
 number of electron     583.0000000 magnetization     120.0000000
 augmentation part      583.0000000 magnetization     120.0000000

 Free energy of the ion-electron system (eV)
  ---------------------------------------------------
  alpha Z        PSCENC =      1567.40908688
  Ewald energy   TEWEN  =   1601046.08035484
  -1/2 Hartree   DENC   =  -1640366.01073812
  -exchange  EXHF       =         0.00000000
  -V(xc)+E(xc)   XCENC  =      1386.26036701
  PAW double counting   =     27858.91048155   -27451.65979283
  entropy T*S    EENTRO =         0.00000000
  eigenvalues    EBANDS =     -4153.11237521
  atomic energy  EATOM  =     39312.24856084
  ---------------------------------------------------
  free energy    TOTEN  =      -799.87405505 eV

  energy without entropy =     -799.87405505  energy(sigma->0) =     -799.87405505


--------------------------------------------------------------------------------------------------------




----------------------------------------- Iteration    1(   4)  ---------------------------------------


     EDDAV:  cpu time   14.86: real time   14.88
 BZINTS: Fermi energy:  2.117043;583.000000 electrons
         Band energy:***********;  BLOECHL correction: -0.209263
       DOS:  cpu time    0.01: real time    0.01
    --------------------------------------------
      LOOP:  cpu time   14.87: real time   15.79

 eigenvalue-minimisations  :  8728
 total energy-change (2. order) :-0.7779746E+02  (-0.7609064E+02)
 number of electron     583.0000000 magnetization     120.0000000
 augmentation part      583.0000000 magnetization     120.0000000

 Free energy of the ion-electron system (eV)
  ---------------------------------------------------
  alpha Z        PSCENC =      1567.40908688
  Ewald energy   TEWEN  =   1601046.08035484
  -1/2 Hartree   DENC   =  -1640366.01073812
  -exchange  EXHF       =         0.00000000
  -V(xc)+E(xc)   XCENC  =      1386.26036701
  PAW double counting   =     27858.91048155   -27451.65979283
  entropy T*S    EENTRO =         0.00000000
  eigenvalues    EBANDS =     -4230.90983612
  atomic energy  EATOM  =     39312.24856084
  ---------------------------------------------------
  free energy    TOTEN  =      -877.67151595 eV

  energy without entropy =     -877.67151595  energy(sigma->0) =     -877.67151595


--------------------------------------------------------------------------------------------------------




----------------------------------------- Iteration    1(   5)  ---------------------------------------


     EDDAV:  cpu time   15.49: real time   15.49
 BZINTS: Fermi energy:  2.107744;583.000000 electrons
         Band energy:***********;  BLOECHL correction: -0.206373
       DOS:  cpu time    0.01: real time    0.01
    CHARGE:  cpu time    0.23: real time    0.23
    MIXING:  cpu time    0.00: real time    0.00
    --------------------------------------------
      LOOP:  cpu time   15.73: real time   16.57

 eigenvalue-minimisations  :  9240
 total energy-change (2. order) :-0.2316009E+01  (-0.2310386E+01)
 number of electron     582.9999966 magnetization     119.7923737
 augmentation part      163.2392495 magnetization      86.1170118

 Broyden mixing:
  rms(total) = 0.10644E+02    rms(broyden)= 0.10639E+02
  rms(prec ) = 0.10700E+02
  weight for this iteration     100.00

 Free energy of the ion-electron system (eV)
  ---------------------------------------------------
  alpha Z        PSCENC =      1567.40908688
  Ewald energy   TEWEN  =   1601046.08035484
  -1/2 Hartree   DENC   =  -1640366.01073812
  -exchange  EXHF       =         0.00000000
  -V(xc)+E(xc)   XCENC  =      1386.26036701
  PAW double counting   =     27858.91048155   -27451.65979283
  entropy T*S    EENTRO =         0.00000000
  eigenvalues    EBANDS =     -4233.22584546
  atomic energy  EATOM  =     39312.24856084
  ---------------------------------------------------
  free energy    TOTEN  =      -879.98752530 eV

  energy without entropy =     -879.98752530  energy(sigma->0) =     -879.98752530


--------------------------------------------------------------------------------------------------------




----------------------------------------- Iteration    1(   6)  ---------------------------------------


    POTLOK:  cpu time    0.07: real time    0.07
    SETDIJ:  cpu time    0.01: real time    0.01
     EDDAV:  cpu time   16.37: real time   16.38
 BZINTS: Fermi energy: -0.725451;583.000000 electrons
         Band energy:***********;  BLOECHL correction: -0.572423
       DOS:  cpu time    0.01: real time    0.01
    CHARGE:  cpu time    0.23: real time    0.23
    MIXING:  cpu time    0.00: real time    0.00
    --------------------------------------------
      LOOP:  cpu time   16.69: real time   16.96

 eigenvalue-minimisations  :  9888
 total energy-change (2. order) : 0.1921040E+02  (-0.1392382E+03)
 number of electron     583.0000050 magnetization     119.6614234
 augmentation part      203.3563223 magnetization      99.6159123

 Broyden mixing:
  rms(total) = 0.16368E+02    rms(broyden)= 0.16365E+02
  rms(prec ) = 0.18482E+02
  weight for this iteration     100.00

 eigenvalues of (default mixing * dielectric matrix)
  average eigenvalue GAMMA=   0.3717
  0.3717

 Free energy of the ion-electron system (eV)
  ---------------------------------------------------
  alpha Z        PSCENC =      1567.40908688
  Ewald energy   TEWEN  =   1601046.08035484
  -1/2 Hartree   DENC   =  -1640264.62132706
  -exchange  EXHF       =         0.00000000
  -V(xc)+E(xc)   XCENC  =      1463.36892792
  PAW double counting   =     30168.86379365   -29734.66129119
  entropy T*S    EENTRO =         0.00000000
  eigenvalues    EBANDS =     -4419.46523475
  atomic energy  EATOM  =     39312.24856084
  ---------------------------------------------------
  free energy    TOTEN  =      -860.77712887 eV

  energy without entropy =     -860.77712887  energy(sigma->0) =     -860.77712887


--------------------------------------------------------------------------------------------------------




----------------------------------------- Iteration    1(   7)  ---------------------------------------


    POTLOK:  cpu time    0.07: real time    0.07
    SETDIJ:  cpu time    0.01: real time    0.01
     EDDAV:  cpu time   15.56: real time   15.57
 BZINTS: Fermi energy:  5.720271;583.000000 electrons
         Band energy:***********;  BLOECHL correction: -0.126613
       DOS:  cpu time    0.01: real time    0.01
    CHARGE:  cpu time    0.23: real time    0.23
    MIXING:  cpu time    0.00: real time    0.00
    --------------------------------------------
      LOOP:  cpu time   15.89: real time   17.39

 eigenvalue-minimisations  :  9288
 total energy-change (2. order) :-0.6437710E+03  (-0.6056329E+02)
 number of electron     583.0000084 magnetization     119.6061688
 augmentation part      180.0671946 magnetization     101.1268956

 Broyden mixing:
  rms(total) = 0.20428E+02    rms(broyden)= 0.20427E+02
  rms(prec ) = 0.32580E+02
  weight for this iteration     100.00

 eigenvalues of (default mixing * dielectric matrix)
  average eigenvalue GAMMA=   0.2107
  0.3672  0.0542

 Free energy of the ion-electron system (eV)
  ---------------------------------------------------
  alpha Z        PSCENC =      1567.40908688
  Ewald energy   TEWEN  =   1601046.08035484
  -1/2 Hartree   DENC   =  -1642073.55935470
  -exchange  EXHF       =         0.00000000
  -V(xc)+E(xc)   XCENC  =      1428.42255183
  PAW double counting   =     30380.83827582   -30036.34288972
  entropy T*S    EENTRO =         0.00000000
  eigenvalues    EBANDS =     -3129.64470472
  atomic energy  EATOM  =     39312.24856084
  ---------------------------------------------------
  free energy    TOTEN  =     -1504.54811893 eV

  energy without entropy =    -1504.54811893  energy(sigma->0) =    -1504.54811893


--------------------------------------------------------------------------------------------------------




----------------------------------------- Iteration    1(   8)  ---------------------------------------


    POTLOK:  cpu time    0.07: real time    0.07
    SETDIJ:  cpu time    0.01: real time    0.01
     EDDAV:  cpu time   16.59: real time   16.60
 BZINTS: Fermi energy:  1.442109;583.000000 electrons
         Band energy:***********;  BLOECHL correction: -0.081611
       DOS:  cpu time    0.01: real time    0.01
    CHARGE:  cpu time    0.23: real time    0.23
    MIXING:  cpu time    0.00: real time    0.00
    --------------------------------------------
      LOOP:  cpu time   16.92: real time   17.20

 eigenvalue-minimisations  : 10088
 total energy-change (2. order) : 0.8439857E+03  (-0.5361152E+02)
 number of electron     582.9999961 magnetization     119.5515778
 augmentation part      165.6089736 magnetization      92.5429426

 Broyden mixing:
  rms(total) = 0.88148E+01    rms(broyden)= 0.88106E+01
  rms(prec ) = 0.10301E+02
  weight for this iteration     100.00

 eigenvalues of (default mixing * dielectric matrix)
  average eigenvalue GAMMA=   0.2325
  0.4419  0.1278  0.1278

 Free energy of the ion-electron system (eV)
  ---------------------------------------------------
  alpha Z        PSCENC =      1567.40908688
  Ewald energy   TEWEN  =   1601046.08035484
  -1/2 Hartree   DENC   =  -1640902.42486729
  -exchange  EXHF       =         0.00000000
  -V(xc)+E(xc)   XCENC  =      1422.24310794
  PAW double counting   =     30425.04031548   -30099.50580000
  entropy T*S    EENTRO =         0.00000000
  eigenvalues    EBANDS =     -3431.65316621
  atomic energy  EATOM  =     39312.24856084
  ---------------------------------------------------
  free energy    TOTEN  =      -660.56240752 eV

  energy without entropy =     -660.56240752  energy(sigma->0) =     -660.56240752


--------------------------------------------------------------------------------------------------------




----------------------------------------- Iteration    1(   9)  ---------------------------------------


    POTLOK:  cpu time    0.07: real time    0.07
    SETDIJ:  cpu time    0.01: real time    0.01
     EDDAV:  cpu time   16.43: real time   16.45
 BZINTS: Fermi energy:  1.275189;583.000000 electrons
         Band energy:***********;  BLOECHL correction: -0.077428
       DOS:  cpu time    0.01: real time    0.01
    CHARGE:  cpu time    0.23: real time    0.23
    MIXING:  cpu time    0.00: real time    0.00
    --------------------------------------------
      LOOP:  cpu time   16.76: real time   17.01

 eigenvalue-minimisations  :  9896
 total energy-change (2. order) : 0.1590053E+02  (-0.1921980E+02)
 number of electron     582.9999981 magnetization     119.4903815
 augmentation part      166.0926737 magnetization      89.9841842

 Broyden mixing:
  rms(total) = 0.70725E+01    rms(broyden)= 0.70703E+01
  rms(prec ) = 0.87903E+01
  weight for this iteration     100.00

 eigenvalues of (default mixing * dielectric matrix)
  average eigenvalue GAMMA=   0.2352
  0.5272  0.1623  0.1623  0.0888

 Free energy of the ion-electron system (eV)
  ---------------------------------------------------
  alpha Z        PSCENC =      1567.40908688
  Ewald energy   TEWEN  =   1601046.08035484
  -1/2 Hartree   DENC   =  -1640674.46847672
  -exchange  EXHF       =         0.00000000
  -V(xc)+E(xc)   XCENC  =      1425.42281234
  PAW double counting   =     30577.53542840   -30255.47858621
  entropy T*S    EENTRO =         0.00000000
  eigenvalues    EBANDS =     -3643.41105696
  atomic energy  EATOM  =     39312.24856084
  ---------------------------------------------------
  free energy    TOTEN  =      -644.66187660 eV

  energy without entropy =     -644.66187660  energy(sigma->0) =     -644.66187660


--------------------------------------------------------------------------------------------------------




----------------------------------------- Iteration    1(  10)  ---------------------------------------


    POTLOK:  cpu time    0.07: real time    0.07
    SETDIJ:  cpu time    0.01: real time    0.01
     EDDAV:  cpu time   16.02: real time   16.03
 BZINTS: Fermi energy:  0.873520;583.000000 electrons
         Band energy:***********;  BLOECHL correction: -0.119262
       DOS:  cpu time    0.01: real time    0.01
    CHARGE:  cpu time    0.23: real time    0.23
    MIXING:  cpu time    0.00: real time    0.00
    --------------------------------------------
      LOOP:  cpu time   16.35: real time   16.59

 eigenvalue-minimisations  :  9648
 total energy-change (2. order) : 0.2426836E+02  (-0.1244976E+02)
 number of electron     582.9999957 magnetization     119.4221786
 augmentation part      165.4018534 magnetization      89.7505089

 Broyden mixing:
  rms(total) = 0.53188E+01    rms(broyden)= 0.53166E+01
  rms(prec ) = 0.57138E+01
  weight for this iteration     100.00

 eigenvalues of (default mixing * dielectric matrix)
  average eigenvalue GAMMA=   0.2436
  0.5983  0.2167  0.2167  0.1026  0.0839

 Free energy of the ion-electron system (eV)
  ---------------------------------------------------
  alpha Z        PSCENC =      1567.40908688
  Ewald energy   TEWEN  =   1601046.08035484
  -1/2 Hartree   DENC   =  -1640705.35704282
  -exchange  EXHF       =         0.00000000
  -V(xc)+E(xc)   XCENC  =      1430.77653947
  PAW double counting   =     30779.09202467   -30458.44620977
  entropy T*S    EENTRO =         0.00000000
  eigenvalues    EBANDS =     -3592.19682715
  atomic energy  EATOM  =     39312.24856084
  ---------------------------------------------------
  free energy    TOTEN  =      -620.39351303 eV

  energy without entropy =     -620.39351303  energy(sigma->0) =     -620.39351303


--------------------------------------------------------------------------------------------------------




----------------------------------------- Iteration    1(  11)  ---------------------------------------


    POTLOK:  cpu time    0.07: real time    0.07
    SETDIJ:  cpu time    0.01: real time    0.01
     EDDAV:  cpu time   16.20: real time   16.21
 BZINTS: Fermi energy:  0.289689;583.000000 electrons
         Band energy:***********;  BLOECHL correction: -0.096689
       DOS:  cpu time    0.01: real time    0.01
    CHARGE:  cpu time    0.23: real time    0.23
    MIXING:  cpu time    0.00: real time    0.00
    --------------------------------------------
      LOOP:  cpu time   16.52: real time   16.96

 eigenvalue-minimisations  :  9800
 total energy-change (2. order) : 0.1300450E+02  (-0.3215421E+01)
 number of electron     582.9999992 magnetization     119.3660944
 augmentation part      166.1678365 magnetization      90.1506335

 Broyden mixing:
  rms(total) = 0.39242E+01    rms(broyden)= 0.39231E+01
  rms(prec ) = 0.40529E+01
  weight for this iteration     100.00

 eigenvalues of (default mixing * dielectric matrix)
  average eigenvalue GAMMA=   0.2560
  0.6199  0.2818  0.2818  0.1336  0.1336  0.0849

 Free energy of the ion-electron system (eV)
  ---------------------------------------------------
  alpha Z        PSCENC =      1567.40908688
  Ewald energy   TEWEN  =   1601046.08035484
  -1/2 Hartree   DENC   =  -1640659.82361882
  -exchange  EXHF       =         0.00000000
  -V(xc)+E(xc)   XCENC  =      1437.22231386
  PAW double counting   =     30995.87156697   -30674.35682984
  entropy T*S    EENTRO =         0.00000000
  eigenvalues    EBANDS =     -3632.04044667
  atomic energy  EATOM  =     39312.24856084
  ---------------------------------------------------
  free energy    TOTEN  =      -607.38901194 eV

  energy without entropy =     -607.38901194  energy(sigma->0) =     -607.38901194


--------------------------------------------------------------------------------------------------------




----------------------------------------- Iteration    1(  12)  ---------------------------------------


    POTLOK:  cpu time    0.07: real time    0.07
    SETDIJ:  cpu time    0.01: real time    0.01
     EDDAV:  cpu time   15.66: real time   15.68
 BZINTS: Fermi energy:  0.194166;583.000000 electrons
         Band energy:***********;  BLOECHL correction: -0.125865
       DOS:  cpu time    0.01: real time    0.01
    CHARGE:  cpu time    0.23: real time    0.23
    MIXING:  cpu time    0.00: real time    0.00
    --------------------------------------------
      LOOP:  cpu time   15.99: real time   16.33

 eigenvalue-minimisations  :  9360
 total energy-change (2. order) : 0.1958258E+01  (-0.8207525E+00)
 number of electron     582.9999981 magnetization     119.2985872
 augmentation part      166.7994007 magnetization      90.6980791

 Broyden mixing:
  rms(total) = 0.33420E+01    rms(broyden)= 0.33418E+01
  rms(prec ) = 0.34727E+01
  weight for this iteration     100.00

 eigenvalues of (default mixing * dielectric matrix)
  average eigenvalue GAMMA=   0.2753
  0.5969  0.3809  0.3809  0.1831  0.1831  0.1176  0.0842

 Free energy of the ion-electron system (eV)
  ---------------------------------------------------
  alpha Z        PSCENC =      1567.40908688
  Ewald energy   TEWEN  =   1601046.08035484
  -1/2 Hartree   DENC   =  -1640632.13986803
  -exchange  EXHF       =         0.00000000
  -V(xc)+E(xc)   XCENC  =      1440.45181320
  PAW double counting   =     31152.32055765   -30827.78150534
  entropy T*S    EENTRO =         0.00000000
  eigenvalues    EBANDS =     -3664.01975425
  atomic energy  EATOM  =     39312.24856084
  ---------------------------------------------------
  free energy    TOTEN  =      -605.43075421 eV

  energy without entropy =     -605.43075421  energy(sigma->0) =     -605.43075421


--------------------------------------------------------------------------------------------------------




----------------------------------------- Iteration    1(  13)  ---------------------------------------


    POTLOK:  cpu time    0.07: real time    0.07
    SETDIJ:  cpu time    0.01: real time    0.01
     EDDAV:  cpu time   16.03: real time   16.04
 BZINTS: Fermi energy:  0.029482;583.000000 electrons
         Band energy:***********;  BLOECHL correction: -0.097427
       DOS:  cpu time    0.01: real time    0.01
    CHARGE:  cpu time    0.23: real time    0.23
    MIXING:  cpu time    0.00: real time    0.00
    --------------------------------------------
      LOOP:  cpu time   16.35: real time   16.60

 eigenvalue-minimisations  :  9664
 total energy-change (2. order) : 0.9506813E+00  (-0.6906614E+00)
 number of electron     582.9999978 magnetization     119.1670244
 augmentation part      167.6027285 magnetization      91.0576086

 Broyden mixing:
  rms(total) = 0.28681E+01    rms(broyden)= 0.28679E+01
  rms(prec ) = 0.29563E+01
  weight for this iteration     100.00

 eigenvalues of (default mixing * dielectric matrix)
  average eigenvalue GAMMA=   0.3112
  0.5514  0.5514  0.5589  0.2263  0.2263  0.1714  0.1193  0.0844

 Free energy of the ion-electron system (eV)
  ---------------------------------------------------
  alpha Z        PSCENC =      1567.40908688
  Ewald energy   TEWEN  =   1601046.08035484
  -1/2 Hartree   DENC   =  -1640582.02500001
  -exchange  EXHF       =         0.00000000
  -V(xc)+E(xc)   XCENC  =      1443.30537059
  PAW double counting   =     31305.61653415   -30979.32166846
  entropy T*S    EENTRO =         0.00000000
  eigenvalues    EBANDS =     -3717.79331176
  atomic energy  EATOM  =     39312.24856084
  ---------------------------------------------------
  free energy    TOTEN  =      -604.48007293 eV

  energy without entropy =     -604.48007293  energy(sigma->0) =     -604.48007293


--------------------------------------------------------------------------------------------------------




----------------------------------------- Iteration    1(  14)  ---------------------------------------


    POTLOK:  cpu time    0.07: real time    0.07
    SETDIJ:  cpu time    0.01: real time    0.01
     EDDAV:  cpu time   16.07: real time   16.08
 BZINTS: Fermi energy:  0.045677;583.000000 electrons
         Band energy:***********;  BLOECHL correction: -0.089028
       DOS:  cpu time    0.01: real time    0.01
    CHARGE:  cpu time    0.23: real time    0.23
    MIXING:  cpu time    0.00: real time    0.00
    --------------------------------------------
      LOOP:  cpu time   16.39: real time   16.63

 eigenvalue-minimisations  :  9672
 total energy-change (2. order) :-0.1422871E+01  (-0.7859860E+00)
 number of electron     582.9999991 magnetization     119.0170197
 augmentation part      168.8057482 magnetization      91.7090663

 Broyden mixing:
  rms(total) = 0.22103E+01    rms(broyden)= 0.22101E+01
  rms(prec ) = 0.22575E+01
  weight for this iteration     100.00

 eigenvalues of (default mixing * dielectric matrix)
  average eigenvalue GAMMA=   0.3505
  0.7248  0.7248  0.5377  0.2858  0.2858  0.1961  0.1961  0.1186  0.0844

 Free energy of the ion-electron system (eV)
  ---------------------------------------------------
  alpha Z        PSCENC =      1567.40908688
  Ewald energy   TEWEN  =   1601046.08035484
  -1/2 Hartree   DENC   =  -1640520.74968261
  -exchange  EXHF       =         0.00000000
  -V(xc)+E(xc)   XCENC  =      1448.74704414
  PAW double counting   =     31574.13963940   -31244.65725627
  entropy T*S    EENTRO =         0.00000000
  eigenvalues    EBANDS =     -3789.12069118
  atomic energy  EATOM  =     39312.24856084
  ---------------------------------------------------
  free energy    TOTEN  =      -605.90294396 eV

  energy without entropy =     -605.90294396  energy(sigma->0) =     -605.90294396


--------------------------------------------------------------------------------------------------------




----------------------------------------- Iteration    1(  15)  ---------------------------------------


    POTLOK:  cpu time    0.07: real time    0.07
    SETDIJ:  cpu time    0.01: real time    0.01
     EDDAV:  cpu time   15.16: real time   15.18
 BZINTS: Fermi energy:  0.000166;583.000000 electrons
         Band energy:***********;  BLOECHL correction: -0.062868
       DOS:  cpu time    0.01: real time    0.01
    CHARGE:  cpu time    0.23: real time    0.23
    MIXING:  cpu time    0.00: real time    0.00
    --------------------------------------------
      LOOP:  cpu time   15.49: real time   15.75

 eigenvalue-minimisations  :  9008
 total energy-change (2. order) :-0.3782937E+01  (-0.1352169E+01)
 number of electron     582.9999970 magnetization     118.8349086
 augmentation part      170.3075577 magnetization      91.6785637

 Broyden mixing:
  rms(total) = 0.21451E+01    rms(broyden)= 0.21444E+01
  rms(prec ) = 0.22912E+01
  weight for this iteration     100.00

 eigenvalues of (default mixing * dielectric matrix)
  average eigenvalue GAMMA=   0.3881
  0.9586  0.9586  0.4741  0.3408  0.3408  0.2129  0.2129  0.0844  0.1188  0.1796

 Free energy of the ion-electron system (eV)
  ---------------------------------------------------
  alpha Z        PSCENC =      1567.40908688
  Ewald energy   TEWEN  =   1601046.08035484
  -1/2 Hartree   DENC   =  -1640482.79345004
  -exchange  EXHF       =         0.00000000
  -V(xc)+E(xc)   XCENC  =      1454.82495480
  PAW double counting   =     31849.10927789   -31517.62712935
  entropy T*S    EENTRO =         0.00000000
  eigenvalues    EBANDS =     -3838.93753699
  atomic energy  EATOM  =     39312.24856084
  ---------------------------------------------------
  free energy    TOTEN  =      -609.68588114 eV

  energy without entropy =     -609.68588114  energy(sigma->0) =     -609.68588114


--------------------------------------------------------------------------------------------------------




----------------------------------------- Iteration    1(  16)  ---------------------------------------


    POTLOK:  cpu time    0.07: real time    0.07
    SETDIJ:  cpu time    0.01: real time    0.01
     EDDAV:  cpu time   15.57: real time   15.57
 BZINTS: Fermi energy: -0.101711;583.000000 electrons
         Band energy:***********;  BLOECHL correction: -0.140929
       DOS:  cpu time    0.01: real time    0.01
    CHARGE:  cpu time    0.23: real time    0.23
    MIXING:  cpu time    0.00: real time    0.00
    --------------------------------------------
      LOOP:  cpu time   15.89: real time   16.11

 eigenvalue-minimisations  :  9320
 total energy-change (2. order) :-0.3388215E+01  (-0.2168433E+01)
 number of electron     582.9999994 magnetization     118.5867580
 augmentation part      171.6928075 magnetization      93.7960121

 Broyden mixing:
  rms(total) = 0.19824E+01    rms(broyden)= 0.19813E+01
  rms(prec ) = 0.22107E+01
  weight for this iteration     100.00

 eigenvalues of (default mixing * dielectric matrix)
  average eigenvalue GAMMA=   0.4335
  1.2457  1.2457  0.4350  0.4350  0.3699  0.2485  0.2485  0.1931  0.0844  0.1186
  0.1444

 Free energy of the ion-electron system (eV)
  ---------------------------------------------------
  alpha Z        PSCENC =      1567.40908688
  Ewald energy   TEWEN  =   1601046.08035484
  -1/2 Hartree   DENC   =  -1640452.89311019
  -exchange  EXHF       =         0.00000000
  -V(xc)+E(xc)   XCENC  =      1462.77263512
  PAW double counting   =     32164.50595948   -31831.02357128
  entropy T*S    EENTRO =         0.00000000
  eigenvalues    EBANDS =     -3882.17401202
  atomic energy  EATOM  =     39312.24856084
  ---------------------------------------------------
  free energy    TOTEN  =      -613.07409632 eV

  energy without entropy =     -613.07409632  energy(sigma->0) =     -613.07409632


--------------------------------------------------------------------------------------------------------




----------------------------------------- Iteration    1(  17)  ---------------------------------------


    POTLOK:  cpu time    0.07: real time    0.07
    SETDIJ:  cpu time    0.01: real time    0.01
     EDDAV:  cpu time   15.98: real time   15.99
 BZINTS: Fermi energy: -0.097497;583.000000 electrons
         Band energy:***********;  BLOECHL correction: -0.155694
       DOS:  cpu time    0.01: real time    0.01
    CHARGE:  cpu time    0.23: real time    0.23
    MIXING:  cpu time    0.00: real time    0.00
    --------------------------------------------
      LOOP:  cpu time   16.30: real time   16.57

 eigenvalue-minimisations  :  9576
 total energy-change (2. order) :-0.3256607E+01  (-0.1414678E+01)
 number of electron     583.0000000 magnetization     118.4721844
 augmentation part      173.3381988 magnetization      93.9230896

 Broyden mixing:
  rms(total) = 0.22958E+01    rms(broyden)= 0.22950E+01
  rms(prec ) = 0.23309E+01
  weight for this iteration     100.00

 eigenvalues of (default mixing * dielectric matrix)
  average eigenvalue GAMMA=   0.4406
  1.3473  1.3473  0.4963  0.4963  0.3499  0.2575  0.2575  0.0844  0.1186  0.1882
  0.1882  0.1561

 Free energy of the ion-electron system (eV)
  ---------------------------------------------------
  alpha Z        PSCENC =      1567.40908688
  Ewald energy   TEWEN  =   1601046.08035484
  -1/2 Hartree   DENC   =  -1640351.38895586
  -exchange  EXHF       =         0.00000000
  -V(xc)+E(xc)   XCENC  =      1474.50188562
  PAW double counting   =     32527.90089374   -32193.33314373
  entropy T*S    EENTRO =         0.00000000
  eigenvalues    EBANDS =     -3999.74938550
  atomic energy  EATOM  =     39312.24856084
  ---------------------------------------------------
  free energy    TOTEN  =      -616.33070316 eV

  energy without entropy =     -616.33070316  energy(sigma->0) =     -616.33070316


--------------------------------------------------------------------------------------------------------




----------------------------------------- Iteration    1(  18)  ---------------------------------------


    POTLOK:  cpu time    0.07: real time    0.07
    SETDIJ:  cpu time    0.01: real time    0.01
     EDDAV:  cpu time   15.86: real time   15.87
 BZINTS: Fermi energy: -0.193450;583.000000 electrons
         Band energy:***********;  BLOECHL correction: -0.116533
       DOS:  cpu time    0.01: real time    0.01
    CHARGE:  cpu time    0.23: real time    0.23
    MIXING:  cpu time    0.00: real time    0.00
    --------------------------------------------
      LOOP:  cpu time   16.18: real time   16.64

 eigenvalue-minimisations  :  9536
 total energy-change (2. order) : 0.2393082E-01  (-0.7182074E+00)
 number of electron     582.9999994 magnetization     118.3501104
 augmentation part      173.3547428 magnetization      95.9326672

 Broyden mixing:
  rms(total) = 0.19811E+01    rms(broyden)= 0.19808E+01
  rms(prec ) = 0.19892E+01
  weight for this iteration     100.00

 eigenvalues of (default mixing * dielectric matrix)
  average eigenvalue GAMMA=   0.4481
  1.4361  1.4361  0.5378  0.5378  0.3607  0.2663  0.2663  0.2201  0.2201  0.0844
  0.1186  0.1845  0.1560

 Free energy of the ion-electron system (eV)
  ---------------------------------------------------
  alpha Z        PSCENC =      1567.40908688
  Ewald energy   TEWEN  =   1601046.08035484
  -1/2 Hartree   DENC   =  -1640363.36451881
  -exchange  EXHF       =         0.00000000
  -V(xc)+E(xc)   XCENC  =      1479.53177872
  PAW double counting   =     32657.27573283   -32324.14457548
  entropy T*S    EENTRO =         0.00000000
  eigenvalues    EBANDS =     -3991.34319216
  atomic energy  EATOM  =     39312.24856084
  ---------------------------------------------------
  free energy    TOTEN  =      -616.30677234 eV

  energy without entropy =     -616.30677234  energy(sigma->0) =     -616.30677234


--------------------------------------------------------------------------------------------------------




----------------------------------------- Iteration    1(  19)  ---------------------------------------


    POTLOK:  cpu time    0.07: real time    0.07
    SETDIJ:  cpu time    0.01: real time    0.01
     EDDAV:  cpu time   15.38: real time   15.39
 BZINTS: Fermi energy: -0.202344;583.000000 electrons
         Band energy:***********;  BLOECHL correction: -0.141278
       DOS:  cpu time    0.01: real time    0.01
    CHARGE:  cpu time    0.23: real time    0.23
    MIXING:  cpu time    0.00: real time    0.00
    --------------------------------------------
      LOOP:  cpu time   15.71: real time   16.30

 eigenvalue-minimisations  :  9184
 total energy-change (2. order) :-0.8100713E+00  (-0.1085777E+00)
 number of electron     582.9999998 magnetization     118.3238395
 augmentation part      173.7890868 magnetization      96.2538233

 Broyden mixing:
  rms(total) = 0.20594E+01    rms(broyden)= 0.20593E+01
  rms(prec ) = 0.20743E+01
  weight for this iteration     100.00

 eigenvalues of (default mixing * dielectric matrix)
  average eigenvalue GAMMA=   0.4443
  1.4636  1.4636  0.5568  0.5568  0.3515  0.3053  0.3053  0.2456  0.2456  0.0844
  0.1186  0.1893  0.1666  0.1666

 Free energy of the ion-electron system (eV)
  ---------------------------------------------------
  alpha Z        PSCENC =      1567.40908688
  Ewald energy   TEWEN  =   1601046.08035484
  -1/2 Hartree   DENC   =  -1640354.11546199
  -exchange  EXHF       =         0.00000000
  -V(xc)+E(xc)   XCENC  =      1483.04715787
  PAW double counting   =     32763.72228150   -32432.89683311
  entropy T*S    EENTRO =         0.00000000
  eigenvalues    EBANDS =     -4002.61199047
  atomic energy  EATOM  =     39312.24856084
  ---------------------------------------------------
  free energy    TOTEN  =      -617.11684364 eV

  energy without entropy =     -617.11684364  energy(sigma->0) =     -617.11684364


--------------------------------------------------------------------------------------------------------




----------------------------------------- Iteration    1(  20)  ---------------------------------------


    POTLOK:  cpu time    0.07: real time    0.07
    SETDIJ:  cpu time    0.01: real time    0.01
     EDDAV:  cpu time   13.36: real time   13.38
 BZINTS: Fermi energy: -0.209596;583.000000 electrons
         Band energy:***********;  BLOECHL correction: -0.109112
       DOS:  cpu time    0.01: real time    0.01
    CHARGE:  cpu time    0.23: real time    0.23
    MIXING:  cpu time    0.00: real time    0.00
    --------------------------------------------
      LOOP:  cpu time   13.69: real time   14.05

 eigenvalue-minimisations  :  7632
 total energy-change (2. order) : 0.6084006E+00  (-0.3273302E-01)
 number of electron     582.9999998 magnetization     118.2321259
 augmentation part      173.7509836 magnetization      96.2776327

 Broyden mixing:
  rms(total) = 0.20174E+01    rms(broyden)= 0.20174E+01
  rms(prec ) = 0.20296E+01
  weight for this iteration     100.00

 eigenvalues of (default mixing * dielectric matrix)
  average eigenvalue GAMMA=   0.4907
  1.5443  1.5443  0.7076  0.7076  0.4757  0.4757  0.3601  0.2808  0.2808  0.0844
  0.2198  0.2198  0.1186  0.1773  0.1637

 Free energy of the ion-electron system (eV)
  ---------------------------------------------------
  alpha Z        PSCENC =      1567.40908688
  Ewald energy   TEWEN  =   1601046.08035484
  -1/2 Hartree   DENC   =  -1640359.47959905
  -exchange  EXHF       =         0.00000000
  -V(xc)+E(xc)   XCENC  =      1483.83067917
  PAW double counting   =     32773.60925087   -32443.39221785
  entropy T*S    EENTRO =         0.00000000
  eigenvalues    EBANDS =     -3996.81455873
  atomic energy  EATOM  =     39312.24856084
  ---------------------------------------------------
  free energy    TOTEN  =      -616.50844303 eV

  energy without entropy =     -616.50844303  energy(sigma->0) =     -616.50844303


--------------------------------------------------------------------------------------------------------




----------------------------------------- Iteration    1(  21)  ---------------------------------------


    POTLOK:  cpu time    0.07: real time    0.07
    SETDIJ:  cpu time    0.01: real time    0.01
     EDDAV:  cpu time   14.98: real time   14.98
 BZINTS: Fermi energy: -0.201212;583.000000 electrons
         Band energy:***********;  BLOECHL correction: -0.117119
       DOS:  cpu time    0.01: real time    0.01
    CHARGE:  cpu time    0.23: real time    0.23
    MIXING:  cpu time    0.00: real time    0.00
    --------------------------------------------
      LOOP:  cpu time   15.30: real time   15.69

 eigenvalue-minimisations  :  8872
 total energy-change (2. order) : 0.7115719E+00  (-0.5058662E-01)
 number of electron     582.9999999 magnetization     118.1907960
 augmentation part      173.7951314 magnetization      96.3595309

 Broyden mixing:
  rms(total) = 0.19889E+01    rms(broyden)= 0.19889E+01
  rms(prec ) = 0.20103E+01
  weight for this iteration     100.00

 eigenvalues of (default mixing * dielectric matrix)
  average eigenvalue GAMMA=   0.4962
  1.5431  1.5431  0.8534  0.8534  0.4955  0.4955  0.3743  0.2925  0.2925  0.0844
  0.2281  0.2281  0.1186  0.1999  0.1681  0.1681

 Free energy of the ion-electron system (eV)
  ---------------------------------------------------
  alpha Z        PSCENC =      1567.40908688
  Ewald energy   TEWEN  =   1601046.08035484
  -1/2 Hartree   DENC   =  -1640368.75061924
  -exchange  EXHF       =         0.00000000
  -V(xc)+E(xc)   XCENC  =      1485.34635458
  PAW double counting   =     32805.03034671   -32476.03338313
  entropy T*S    EENTRO =         0.00000000
  eigenvalues    EBANDS =     -3987.12757262
  atomic energy  EATOM  =     39312.24856084
  ---------------------------------------------------
  free energy    TOTEN  =      -615.79687113 eV

  energy without entropy =     -615.79687113  energy(sigma->0) =     -615.79687113


--------------------------------------------------------------------------------------------------------




----------------------------------------- Iteration    1(  22)  ---------------------------------------


    POTLOK:  cpu time    0.07: real time    0.07
    SETDIJ:  cpu time    0.01: real time    0.01
     EDDAV:  cpu time   13.80: real time   13.81
 BZINTS: Fermi energy: -0.192442;583.000000 electrons
         Band energy:***********;  BLOECHL correction: -0.117835
       DOS:  cpu time    0.01: real time    0.01
    CHARGE:  cpu time    0.23: real time    0.23
    MIXING:  cpu time    0.00: real time    0.00
    --------------------------------------------
      LOOP:  cpu time   14.13: real time   14.35

 eigenvalue-minimisations  :  8000
 total energy-change (2. order) : 0.3606425E+00  (-0.1398756E-01)
 number of electron     582.9999998 magnetization     118.1438540
 augmentation part      173.8283180 magnetization      96.3416188

 Broyden mixing:
  rms(total) = 0.19653E+01    rms(broyden)= 0.19653E+01
  rms(prec ) = 0.19865E+01
  weight for this iteration     100.00

 eigenvalues of (default mixing * dielectric matrix)
  average eigenvalue GAMMA=   0.5025
  1.6049  1.6049  0.9491  0.9491  0.5032  0.5032  0.3693  0.2989  0.2989  0.0844
  0.2447  0.2447  0.1186  0.2145  0.2145  0.1696  0.1696

 Free energy of the ion-electron system (eV)
  ---------------------------------------------------
  alpha Z        PSCENC =      1567.40908688
  Ewald energy   TEWEN  =   1601046.08035484
  -1/2 Hartree   DENC   =  -1640375.65529598
  -exchange  EXHF       =         0.00000000
  -V(xc)+E(xc)   XCENC  =      1485.87303897
  PAW double counting   =     32816.09991698   -32487.62587778
  entropy T*S    EENTRO =         0.00000000
  eigenvalues    EBANDS =     -3979.86601335
  atomic energy  EATOM  =     39312.24856084
  ---------------------------------------------------
  free energy    TOTEN  =      -615.43622860 eV

  energy without entropy =     -615.43622860  energy(sigma->0) =     -615.43622860


--------------------------------------------------------------------------------------------------------




----------------------------------------- Iteration    1(  23)  ---------------------------------------


    POTLOK:  cpu time    0.07: real time    0.07
    SETDIJ:  cpu time    0.01: real time    0.01
     EDDAV:  cpu time   14.68: real time   14.70
 BZINTS: Fermi energy: -0.180622;583.000000 electrons
         Band energy:***********;  BLOECHL correction: -0.123711
       DOS:  cpu time    0.01: real time    0.01
    CHARGE:  cpu time    0.23: real time    0.23
    MIXING:  cpu time    0.00: real time    0.00
    --------------------------------------------
      LOOP:  cpu time   15.01: real time   15.13

 eigenvalue-minimisations  :  8624
 total energy-change (2. order) : 0.3875306E+00  (-0.9647896E-02)
 number of electron     582.9999999 magnetization     118.0538049
 augmentation part      173.7897420 magnetization      96.2462516

 Broyden mixing:
  rms(total) = 0.19273E+01    rms(broyden)= 0.19273E+01
  rms(prec ) = 0.19417E+01
  weight for this iteration     100.00

 eigenvalues of (default mixing * dielectric matrix)
  average eigenvalue GAMMA=   0.5234
  1.5806  1.5806  1.1158  1.1158  0.5532  0.5532  0.4195  0.4195  0.3347  0.2771
  0.2771  0.0844  0.1186  0.2225  0.2225  0.1677  0.1721  0.2057

 Free energy of the ion-electron system (eV)
  ---------------------------------------------------
  alpha Z        PSCENC =      1567.40908688
  Ewald energy   TEWEN  =   1601046.08035484
  -1/2 Hartree   DENC   =  -1640381.23407033
  -exchange  EXHF       =         0.00000000
  -V(xc)+E(xc)   XCENC  =      1486.44305531
  PAW double counting   =     32824.82627516   -32496.89701775
  entropy T*S    EENTRO =         0.00000000
  eigenvalues    EBANDS =     -3973.92494300
  atomic energy  EATOM  =     39312.24856084
  ---------------------------------------------------
  free energy    TOTEN  =      -615.04869805 eV

  energy without entropy =     -615.04869805  energy(sigma->0) =     -615.04869805


--------------------------------------------------------------------------------------------------------




----------------------------------------- Iteration    1(  24)  ---------------------------------------


    POTLOK:  cpu time    0.07: real time    0.07
    SETDIJ:  cpu time    0.01: real time    0.01
     EDDAV:  cpu time   15.83: real time   15.84
 BZINTS: Fermi energy: -0.157111;583.000000 electrons
         Band energy:***********;  BLOECHL correction: -0.106540
       DOS:  cpu time    0.01: real time    0.01
    CHARGE:  cpu time    0.23: real time    0.23
    MIXING:  cpu time    0.00: real time    0.00
    --------------------------------------------
      LOOP:  cpu time   16.15: real time   16.28

 eigenvalue-minimisations  :  9520
 total energy-change (2. order) :-0.2848232E+00  (-0.1525829E-01)
 number of electron     582.9999998 magnetization     117.8279022
 augmentation part      173.8131428 magnetization      96.0999222

 Broyden mixing:
  rms(total) = 0.19141E+01    rms(broyden)= 0.19141E+01
  rms(prec ) = 0.19287E+01
  weight for this iteration     100.00

 eigenvalues of (default mixing * dielectric matrix)
  average eigenvalue GAMMA=   0.5609
  1.6271  1.6271  1.3434  1.3434  0.6473  0.6473  0.4833  0.4833  0.0844  0.2956
  0.2956  0.3079  0.2827  0.2827  0.1186  0.2246  0.2246  0.1697  0.1697

 Free energy of the ion-electron system (eV)
  ---------------------------------------------------
  alpha Z        PSCENC =      1567.40908688
  Ewald energy   TEWEN  =   1601046.08035484
  -1/2 Hartree   DENC   =  -1640388.81778672
  -exchange  EXHF       =         0.00000000
  -V(xc)+E(xc)   XCENC  =      1487.27799828
  PAW double counting   =     32850.51524224   -32523.36193256
  entropy T*S    EENTRO =         0.00000000
  eigenvalues    EBANDS =     -3966.68504504
  atomic energy  EATOM  =     39312.24856084
  ---------------------------------------------------
  free energy    TOTEN  =      -615.33352126 eV

  energy without entropy =     -615.33352126  energy(sigma->0) =     -615.33352126


--------------------------------------------------------------------------------------------------------




----------------------------------------- Iteration    1(  25)  ---------------------------------------


    POTLOK:  cpu time    0.07: real time    0.07
    SETDIJ:  cpu time    0.01: real time    0.01
     EDDAV:  cpu time   16.05: real time   16.05
 BZINTS: Fermi energy: -0.114866;583.000000 electrons
         Band energy:***********;  BLOECHL correction: -0.108765
       DOS:  cpu time    0.01: real time    0.01
    CHARGE:  cpu time    0.23: real time    0.23
    MIXING:  cpu time    0.00: real time    0.00
    --------------------------------------------
      LOOP:  cpu time   16.37: real time   16.49

 eigenvalue-minimisations  :  9688
 total energy-change (2. order) :-0.5930418E+00  (-0.3483413E-01)
 number of electron     582.9999999 magnetization     117.6462985
 augmentation part      173.7760191 magnetization      96.0233480

 Broyden mixing:
  rms(total) = 0.18731E+01    rms(broyden)= 0.18730E+01
[...]
   -.135E+02 0.415E-02 0.467E+03   0.136E+02 -.351E-02 -.469E+03   -.941E-01 0.377E-03 0.105E+01   0.604E-02 -.141E-03 0.140E+01
   -.138E+02 0.751E-02 -.162E+04   0.141E+02 -.696E-02 0.163E+04   -.234E+00 0.319E-03 0.112E+01   -.273E-01 -.289E-03 -.118E+02
   -.183E+01 -.938E-02 -.276E+04   0.175E+01 0.862E-02 0.278E+04   0.127E-01 0.768E-03 0.141E+00   0.531E-01 0.750E-04 -.141E+02
   0.833E+00 -.104E-01 -.396E+04   -.910E+00 0.989E-02 0.397E+04   0.742E-01 0.974E-03 0.293E+00   0.279E-01 -.803E-04 -.134E+02
   -.132E+01 -.199E-02 -.510E+04   0.131E+01 0.205E-02 0.511E+04   0.921E-02 0.601E-03 0.181E-02   0.145E-01 -.711E-04 -.442E+01
   -.151E+01 0.211E-01 -.623E+04   0.150E+01 -.210E-01 0.623E+04   -.354E-02 -.160E-02 -.313E+00   -.188E-01 0.186E-05 0.297E+01
   0.225E+02 -.329E-01 -.741E+04   -.223E+02 0.325E-01 0.740E+04   -.324E+00 0.108E-02 -.136E+00   0.222E-01 -.266E-03 0.435E+01
   0.619E+00 0.143E-02 -.336E+04   -.526E+00 -.199E-02 0.338E+04   -.262E-01 0.317E-03 0.118E+00   -.442E-01 -.243E-04 -.147E+02
   -.180E+01 -.188E-01 -.453E+04   0.201E+01 0.163E-01 0.454E+04   -.149E+00 0.192E-02 0.149E+01   -.625E-01 -.118E-04 -.942E+01
   0.245E+01 0.280E-01 -.567E+04   -.256E+01 -.248E-01 0.567E+04   0.867E-01 -.198E-02 -.147E+01   0.573E-01 0.851E-04 0.123E+00
   -.523E+01 0.334E-01 -.682E+04   0.521E+01 -.330E-01 0.681E+04   -.301E-01 -.111E-02 -.144E+00   0.106E-01 -.790E-04 0.443E+01
   -.308E+02 -.281E+00 -.796E+04   0.310E+02 0.277E+00 0.796E+04   -.167E+00 -.229E-02 -.742E+00   -.976E-02 0.213E-02 0.295E+01
   0.164E+02 -.975E-01 -.118E+04   -.161E+02 0.149E+00 0.118E+04   -.185E+00 -.505E-01 0.117E+02   -.167E-02 0.253E-03 -.886E+01
   0.261E+02 -.713E-01 0.590E+03   -.284E+02 0.109E+00 -.599E+03   0.226E+01 -.376E-01 0.792E+01   0.368E-02 0.156E-03 0.120E+01
   0.111E+03 0.137E-02 0.660E+04   -.136E+03 -.304E-02 -.663E+04   0.239E+02 0.126E-02 0.202E+02   0.286E+00 -.948E-04 0.562E+01
   0.303E+02 -.529E-01 0.236E+04   -.343E+02 0.821E-01 -.237E+04   0.398E+01 -.289E-01 0.589E+01   -.243E-01 0.184E-03 0.259E+01
   -.460E+02 0.178E-01 0.499E+04   0.551E+02 -.295E-01 -.499E+04   -.876E+01 0.120E-01 0.122E+00   -.293E+00 0.130E-03 -.138E+01
   0.450E+02 -.306E-01 0.407E+04   -.540E+02 0.477E-01 -.407E+04   0.927E+01 -.170E-01 0.108E+01   -.193E+00 -.417E-04 -.117E+01
   -.405E+02 0.326E-01 0.326E+04   0.473E+02 -.509E-01 -.326E+04   -.713E+01 0.186E-01 -.337E+01   0.241E+00 -.154E-03 0.344E+01
   0.436E+02 -.113E-01 0.578E+04   -.521E+02 0.181E-01 -.579E+04   0.834E+01 -.708E-02 0.204E+01   0.154E+00 0.395E-04 0.381E+01
   -.261E+02 0.635E-01 0.146E+04   0.282E+02 -.102E+00 -.146E+04   -.202E+01 0.396E-01 -.823E+01   -.190E-01 -.171E-03 0.849E+00
   -.234E+02 0.575E-01 -.328E+03   0.245E+02 -.934E-01 0.339E+03   -.123E+01 0.365E-01 -.918E+01   0.560E-01 0.312E-03 -.226E+01
   -.267E+02 0.853E-01 -.213E+04   0.253E+02 -.133E+00 0.215E+04   0.150E+01 0.477E-01 -.102E+02   -.118E-01 0.394E-04 -.118E+02
   -.419E+01 -.756E-01 -.209E+04   0.218E+01 0.114E+00 0.209E+04   0.193E+01 -.382E-01 0.133E+02   0.153E-01 -.353E-03 -.118E+02
   -.216E+02 -.631E-01 -.295E+03   0.231E+02 0.102E+00 0.289E+03   -.144E+01 -.382E-01 0.906E+01   -.198E-01 -.179E-03 -.277E+01
   -.241E+02 -.734E-01 0.148E+04   0.262E+02 0.114E+00 -.149E+04   -.212E+01 -.406E-01 0.836E+01   0.366E-01 0.241E-03 0.923E+00
   0.395E+02 0.140E-01 0.583E+04   -.462E+02 -.213E-01 -.583E+04   0.693E+01 0.692E-02 -.294E+01   -.267E+00 0.156E-04 0.438E+01
   -.386E+02 -.377E-01 0.322E+04   0.457E+02 0.565E-01 -.322E+04   -.679E+01 -.181E-01 0.253E+01   -.202E+00 -.127E-03 0.367E+01
   0.461E+02 0.276E-01 0.414E+04   -.549E+02 -.450E-01 -.414E+04   0.868E+01 0.177E-01 0.188E-01   0.767E-01 0.157E-03 -.157E+01
   -.470E+02 -.236E-01 0.492E+04   0.565E+02 0.358E-01 -.492E+04   -.976E+01 -.118E-01 0.773E+00   0.222E+00 -.265E-03 -.167E+01
   0.321E+02 0.487E-01 0.236E+04   -.359E+02 -.771E-01 -.236E+04   0.399E+01 0.293E-01 -.644E+01   -.902E-01 -.435E-03 0.308E+01
   -.118E+03 -.146E-01 0.662E+04   0.139E+03 0.178E-01 -.665E+04   -.204E+02 -.228E-02 0.285E+02   -.640E-01 -.133E-04 0.619E+01
   0.237E+02 0.677E-01 0.568E+03   -.257E+02 -.104E+00 -.561E+03   0.201E+01 0.371E-01 -.859E+01   0.507E-02 -.157E-03 0.125E+01
   0.166E+02 0.793E-01 -.124E+04   -.152E+02 -.130E+00 0.126E+04   -.148E+01 0.517E-01 -.111E+02   0.140E-02 -.128E-03 -.862E+01
   -.173E+03 0.764E-01 -.166E+04   0.208E+03 -.111E+00 0.168E+04   -.346E+02 0.341E-01 -.784E+01   0.988E-02 0.378E-03 -.108E+02
   -.180E+03 0.560E-01 0.144E+03   0.215E+03 -.814E-01 -.138E+03   -.352E+02 0.252E-01 -.700E+01   0.661E-01 0.154E-03 0.908E+00
   -.181E+03 0.465E-01 0.194E+04   0.216E+03 -.710E-01 -.193E+04   -.350E+02 0.247E-01 -.657E+01   -.132E+00 0.276E-03 0.521E+00
   0.185E+03 -.174E-01 0.535E+04   -.220E+03 0.235E-01 -.535E+04   0.352E+02 -.570E-02 0.515E+01   0.355E+00 0.103E-03 0.253E+00
   -.186E+03 0.228E-01 0.371E+04   0.221E+03 -.350E-01 -.370E+04   -.353E+02 0.123E-01 -.487E+01   0.497E+00 0.322E-03 0.478E+00
   0.185E+03 -.288E-01 0.364E+04   -.220E+03 0.418E-01 -.364E+04   0.354E+02 -.124E-01 0.506E+01   -.584E+00 -.394E-03 0.121E+01
   -.184E+03 0.942E-02 0.542E+04   0.219E+03 -.153E-01 -.542E+04   -.353E+02 0.620E-02 -.467E+01   -.366E+00 -.896E-04 0.104E+01
   0.180E+03 -.598E-01 0.191E+04   -.215E+03 0.840E-01 -.191E+04   0.351E+02 -.238E-01 0.686E+01   0.999E-01 0.210E-04 0.461E+00
   0.179E+03 -.643E-01 0.121E+03   -.214E+03 0.910E-01 -.128E+03   0.352E+02 -.260E-01 0.662E+01   -.157E-01 -.323E-03 0.573E+00
   0.173E+03 -.733E-01 -.166E+04   -.208E+03 0.108E+00 0.166E+04   0.345E+02 -.342E-01 0.849E+01   -.213E-01 -.854E-04 -.110E+02
   0.176E+03 0.448E-01 -.755E+03   -.211E+03 -.689E-01 0.768E+03   0.348E+02 0.250E-01 -.763E+01   0.615E-01 0.184E-03 -.595E+01
   0.179E+03 0.574E-01 0.104E+04   -.214E+03 -.838E-01 -.103E+04   0.351E+02 0.272E-01 -.722E+01   -.787E-01 -.240E-03 0.116E+01
   -.183E+03 -.218E-01 0.621E+04   0.215E+03 0.254E-01 -.623E+04   -.322E+02 -.235E-02 0.814E+01   -.122E+00 0.262E-03 0.576E+01
   0.184E+03 0.346E-01 0.282E+04   -.219E+03 -.530E-01 -.282E+04   0.351E+02 0.184E-01 -.639E+01   -.188E-01 0.421E-03 0.471E+01
   -.185E+03 -.233E-01 0.449E+04   0.220E+03 0.324E-01 -.450E+04   -.353E+02 -.863E-02 0.502E+01   0.118E+00 0.194E-04 -.192E+01
   0.185E+03 0.160E-01 0.457E+04   -.220E+03 -.248E-01 -.457E+04   0.353E+02 0.917E-02 -.420E+01   -.142E+00 -.880E-04 -.186E+01
   -.183E+03 -.486E-01 0.277E+04   0.218E+03 0.667E-01 -.279E+04   -.353E+02 -.175E-01 0.571E+01   0.151E-01 -.189E-03 0.465E+01
   0.180E+03 0.142E-01 0.624E+04   -.214E+03 -.180E-01 -.624E+04   0.339E+02 0.327E-02 -.545E+01   0.448E-01 -.316E-03 0.585E+01
   -.179E+03 -.592E-01 0.102E+04   0.214E+03 0.864E-01 -.102E+04   -.351E+02 -.270E-01 0.715E+01   0.861E-01 0.141E-03 0.114E+01
   -.175E+03 -.667E-01 -.762E+03   0.210E+03 0.921E-01 0.760E+03   -.349E+02 -.245E-01 0.811E+01   -.405E-01 -.239E-03 -.639E+01
   -.122E+02 0.605E-01 -.316E+04   0.801E+01 -.892E-01 0.318E+04   0.443E+01 0.281E-01 -.126E+02   -.209E+00 0.140E-03 -.124E+02
   -.229E+02 0.389E-01 -.414E+04   0.282E+02 -.529E-01 0.415E+04   -.524E+01 0.146E-01 -.465E+01   -.485E-01 -.627E-03 -.569E+01
   -.216E+02 0.456E-01 -.510E+04   0.240E+02 -.734E-01 0.511E+04   -.242E+01 0.272E-01 -.113E+02   0.141E+00 0.647E-03 0.157E+01
   -.244E+02 0.308E-01 -.611E+04   0.263E+02 -.462E-01 0.612E+04   -.198E+01 0.165E-01 -.125E+02   0.985E-01 -.459E-03 0.405E+01
   -.885E+02 0.128E+00 -.708E+04   0.106E+03 -.115E+00 0.711E+04   -.175E+02 -.221E-01 -.305E+02   -.746E-01 0.567E-02 0.202E+01
   0.123E+02 0.707E-01 -.264E+04   -.795E+01 -.102E+00 0.267E+04   -.433E+01 0.307E-01 -.128E+02   0.140E-01 0.551E-03 -.124E+02
   0.958E+01 0.538E-01 -.368E+04   -.517E+01 -.824E-01 0.370E+04   -.488E+01 0.282E-01 -.131E+02   0.394E+00 -.128E-03 -.991E+01
   0.552E+01 0.281E-01 -.463E+04   -.172E+01 -.490E-01 0.465E+04   -.375E+01 0.220E-01 -.162E+02   -.306E-01 -.303E-03 -.180E+01
   0.177E+02 0.388E-01 -.559E+04   -.186E+02 -.559E-01 0.560E+04   0.102E+01 0.174E-01 -.114E+02   -.524E-01 -.598E-04 0.334E+01
   0.192E+02 0.753E-02 -.664E+04   -.222E+02 -.255E-01 0.665E+04   0.309E+01 0.139E-01 -.148E+02   -.724E-01 0.142E-02 0.325E+01
   -.144E+02 -.512E-01 -.313E+04   0.125E+02 0.803E-01 0.313E+04   0.175E+01 -.289E-01 0.127E+02   0.112E+00 -.123E-03 -.125E+02
   -.591E+01 -.263E-01 -.411E+04   0.178E+01 0.420E-01 0.410E+04   0.419E+01 -.170E-01 0.165E+02   -.657E-01 0.647E-03 -.577E+01
   -.928E+01 -.534E-01 -.507E+04   0.346E+01 0.839E-01 0.505E+04   0.610E+01 -.299E-01 0.127E+02   -.265E+00 -.208E-03 0.149E+01
   -.309E+01 -.169E-01 -.607E+04   -.373E+01 0.369E-01 0.605E+04   0.690E+01 -.201E-01 0.133E+02   -.135E+00 -.192E-02 0.397E+01
   0.101E+03 0.675E-01 -.705E+04   -.125E+03 -.160E+00 0.707E+04   0.238E+02 0.106E+00 -.192E+02   0.981E-01 -.276E-02 0.209E+01
   0.145E+02 -.670E-01 -.261E+04   -.118E+02 0.978E-01 0.261E+04   -.266E+01 -.305E-01 0.133E+02   -.123E-01 -.264E-03 -.125E+02
   0.179E+02 -.415E-01 -.364E+04   -.181E+02 0.678E-01 0.364E+04   0.363E+00 -.264E-01 0.119E+02   -.217E+00 0.609E-05 -.101E+02
   0.240E+02 -.519E-01 -.460E+04   -.293E+02 0.725E-01 0.460E+04   0.510E+01 -.196E-01 0.404E+01   0.138E+00 -.134E-03 -.185E+01
   0.133E+02 -.575E-01 -.557E+04   -.902E+01 0.811E-01 0.556E+04   -.438E+01 -.228E-01 0.116E+02   0.130E+00 0.414E-03 0.333E+01
   -.663E+01 0.393E-01 -.656E+04   0.170E+02 -.936E-02 0.654E+04   -.107E+02 -.280E-01 0.132E+02   0.154E+00 -.615E-02 0.327E+01
   0.121E+00 -.227E-02 -.729E+03   -.109E+00 0.181E-02 0.729E+03   -.514E-02 0.447E-03 -.171E-01   -.374E-03 0.478E-06 -.629E+00
 -----------------------------------------------------------------------------------------------
   -.113E+02 -.550E-01 0.127E+03   -.218E-12 0.343E-12 0.364E-11   0.117E+02 0.753E-01 0.595E+01   -.409E+00 -.159E-02 -.133E+03
 
 
 POSITION                                       TOTAL-FORCE (eV/Angst)
 -----------------------------------------------------------------------------------
      0.34706      0.74159     61.96395        -0.054514      0.000842     -0.159846
      0.26352      0.73241     52.60902         0.021375      0.000033      0.082182
      4.29860      2.14887     21.61818        -0.114919     -0.000118     -0.047030
      0.22216      0.72357     43.23001         0.044930      0.000230      0.228584
      4.43319      2.15088     31.19876        -0.063980     -0.000129     -0.224437
      0.12665      0.71863     33.75659        -0.060288      0.000063     -0.248196
      4.39197      2.15512     40.70343         0.093149      0.000483      0.192464
      0.14103      0.71608     24.20695         0.052733      0.000039      0.124372
      4.32535      2.16318     50.10796         0.017347      0.000030      0.001150
      4.35516      2.17243     59.46593         0.023590      0.000729      0.142498
      2.06959      0.74775     66.62771         0.032450      0.000496     -0.222760
      2.08487      0.73696     57.29254         0.005130     -0.000275      0.092051
      2.05818      0.72755     47.93033        -0.002524      0.000306     -0.064554
      2.41571      2.14957     26.43039        -0.061207      0.000053     -0.040138
      2.12274      0.72083     38.50380        -0.037088     -0.000242      0.109496
      2.39157      2.15281     35.95905         0.007921      0.000189     -0.128988
      2.16652      0.71705     28.98804         0.067862     -0.000096     -0.102390
      2.48905      2.15855     45.41788        -0.033602      0.000300      0.034849
      2.53502      2.16783     54.78580        -0.043584      0.000671      0.188387
      2.61652      2.17790     64.12636         0.020825      0.000378     -0.068693
      4.32649      2.18364     68.80762        -0.016543     -0.000117     -0.137104
      4.33020      2.18790     73.19520         0.026191      0.000135     -0.065616
      4.39312      2.19094     77.83477         0.009722      0.000386      0.044830
      4.49036      2.19433     82.49932        -0.026326     -0.001714      0.095300
      0.01823      2.19718     86.95294        -0.067131      0.000266      0.075004
      2.07020      0.75291     70.99885         0.022812     -0.000466     -0.117076
      2.07007      0.75662     75.38901        -0.004702     -0.000815      0.001835
      2.19363      0.75957     80.28574         0.031486      0.001056      0.110220
      2.21938      0.76276     84.72296        -0.040141     -0.000920      0.058498
      2.18015      0.76521     89.16528         0.107508     -0.004361      0.132973
      1.84677      0.74423     63.16280         0.044958      0.000861      0.051786
      1.70527      0.73435     53.87394        -0.033914      0.000114     -0.079687
      2.88909      2.14876     20.51235         0.070360     -0.000710      0.145169
      1.62471      0.72520     44.53859        -0.051726      0.000265     -0.073655
      3.13359      2.15017     29.77903         0.078338      0.000181      0.101573
      1.42812      0.71962     35.16974         0.095781     -0.000100      0.116903
      3.04738      2.15404     39.33469        -0.079682     -0.000072     -0.133091
      1.47410      0.71650     25.61239        -0.014079     -0.000409     -0.030897
      2.88541      2.16096     48.84523         0.022672      0.000292      0.017909
      2.89835      2.17033     58.22560        -0.073512      0.000688     -0.042326
      2.84227      2.18133     67.58905         0.055627     -0.000162      0.094784
      0.54540      0.75018     67.80671        -0.066764     -0.000164      0.087606
      0.62903      0.73900     58.53883         0.016178     -0.000133     -0.079726
      0.61895      0.72968     49.19184        -0.032460      0.000240      0.025107
      3.74732      2.14919     25.04389         0.036968     -0.000541     -0.085594
      0.77914      0.72189     39.87525         0.077686      0.000326     -0.099724
      3.69470      2.15181     34.54645        -0.066381      0.000255      0.106598
      0.87039      0.71772     30.41508        -0.072524      0.000009      0.103361
      3.88986      2.15689     44.11283         0.037173      0.000279     -0.085456
      0.59501      0.71576     20.72428         0.006610      0.000727      0.122807
      3.97243      2.16584     53.52773         0.067448     -0.000002     -0.071979
      4.11491      2.17513     62.93699        -0.035405      0.000376      0.062775
      3.36072      0.74540     65.18832        -0.001206      0.000127      0.078291
      3.32552      0.73519     55.81151         0.019027     -0.000223     -0.070221
      3.29069      0.72587     46.43551         0.000742      0.000333      0.001889
      1.29822      2.14993     28.03106        -0.023641      0.000282      0.050019
      3.25426      0.71997     36.92084        -0.015917      0.000174     -0.006572
      1.26399      2.15362     37.54432         0.030184      0.000047      0.012238
      3.28216      0.71664     27.39363        -0.003877      0.000071     -0.002069
      1.26194      2.16015     46.91421        -0.000679      0.000231      0.023174
      1.29691      2.16953     56.27053        -0.007336      0.000189     -0.071365
      1.32024      2.18025     65.56944        -0.010821     -0.000030      0.094934
      3.59381      0.73969     60.51748         0.010470      0.000957      0.011904
      3.54305      0.73055     51.13648        -0.010717      0.000357     -0.022646
      0.96888      2.14894     23.22668        -0.033222      0.001306     -0.063069
      3.56394      0.72238     41.69585        -0.028391      0.000200     -0.112276
      1.00106      2.15147     32.80839         0.010315      0.000232      0.102431
      3.55700      0.71800     32.14988         0.018945      0.000037      0.063549
      1.04385      2.15623     42.23876        -0.014877      0.000233     -0.111120
      3.48840      0.71598     22.67856         0.049497     -0.001017     -0.055076
      1.04550      2.16499     51.58293         0.010674      0.000145     -0.025082
      1.10125      2.17416     60.91740         0.017641      0.000408      0.029314
      2.80744      2.18627     72.01850         0.032251     -0.000662      0.034856
      2.81708      2.19004     76.53437         0.059672     -0.000230     -0.071548
      2.97671      2.19290     81.22632         0.092828     -0.000201     -0.039927
      3.00175      2.19595     85.69456         0.001221      0.000454     -0.029440
      2.84818      2.19770     90.18929        -0.083982     -0.003201     -0.158676
      3.59041      0.75104     69.81811        -0.017308     -0.000473      0.059004
      3.60466      0.75525     74.23088        -0.076761     -0.000700      0.039141
      3.64193      0.75816     78.86887         0.018791      0.000679     -0.031321
      3.70644      0.76152     83.45785         0.088846     -0.000023     -0.059961
      3.81907      0.76451     87.97841         0.057005     -0.002846      0.023047
      0.55343      0.75457     72.20770        -0.034061     -0.000245      0.061640
      0.60661      0.75775     76.79186        -0.000387     -0.000848      0.047679
      0.68188      0.76094     81.45376         0.022395      0.000113     -0.033042
      0.70976      0.76405     85.89392        -0.049110     -0.002191     -0.023355
      0.67399      0.75722     90.16555        -0.023801      0.009995     -0.115986
      1.32411      2.18549     70.00063         0.022054     -0.000214      0.051229
      1.30841      2.18933     74.43077        -0.040826     -0.000336      0.055026
      1.43473      2.19196     79.13590        -0.060259      0.000658      0.053825
      1.46180      2.19537     83.69840         0.029254      0.001020     -0.027742
      1.56305      2.19777     88.03773        -0.103861     -0.004349     -0.113428
      2.12120      0.75790     77.83721         0.007393     -0.000210      0.008620
 -----------------------------------------------------------------------------------
    total drift:                               -0.039901      0.018682      0.008069


--------------------------------------------------------------------------------------------------------



  FREE ENERGIE OF THE ION-ELECTRON SYSTEM (eV)
  ---------------------------------------------------
  free  energy   TOTEN  =      -644.19979177 eV

  energy  without entropy=     -644.19979177  energy(sigma->0) =     -644.19979177
 


--------------------------------------------------------------------------------------------------------


    POTLOK:  cpu time    0.08: real time    0.08


--------------------------------------------------------------------------------------------------------


     LOOP+:  cpu time  954.19: real time  970.97
    4ORBIT:  cpu time    0.00: real time    0.00
 BZINTS: Fermi energy:  0.532667;583.000000 electrons
         Band energy:***********;  BLOECHL correction: -0.065966

 total amount of memory used by VASP on root node    66181. kBytes
========================================================================

   base      :      30000. kBytes
   nonl-proj :       9545. kBytes
   fftplans  :       1537. kBytes
   grid      :       4066. kBytes
   one-center:        373. kBytes
   wavefun   :      20660. kBytes
 
  
  
 General timing and accounting informations for this job:
 ========================================================
  
                  Total CPU time used (sec):      960.769
                            User time (sec):      959.454
                          System time (sec):        1.315
                         Elapsed time (sec):      985.686
  
                   Maximum memory used (kb):      168800.
                   Average memory used (kb):           0.
  
                          Minor page faults:        19089
                          Major page faults:            0
                 Voluntary context switches:        17515
