 vasp.5.3.3 18Dez12 (build May 12 2016 12:04:25) complex                        
  
 executed on             LinuxIFC date 2019.05.18  10:29:56
 running on   32 total cores
 distrk:  each k-point on   32 cores,    1 groups
 distr:  one band on NCORES_PER_BAND=   4 cores,    8 groups


--------------------------------------------------------------------------------------------------------


 INCAR:
 POTCAR:    PAW_PBE O 08Apr2002                   
 POTCAR:    PAW_PBE Mn 06Sep2000                  
 POTCAR:    PAW_PBE O 08Apr2002                   
  local pseudopotential read in
  partial core-charges read in
  partial kinetic energy density read in
  kinetic energy density of atom read in
  atomic valenz-charges read in
  non local Contribution for L=           0  read in
    real space projection operators read in
  non local Contribution for L=           0  read in
    real space projection operators read in
  non local Contribution for L=           1  read in
    real space projection operators read in
  non local Contribution for L=           1  read in
    real space projection operators read in
    PAW grid and wavefunctions read in
 
   number of l-projection  operators is LMAX  =           4
   number of lm-projection operators is LMMAX =           8
 
 POTCAR:    PAW_PBE Mn 06Sep2000                  
  local pseudopotential read in
  partial core-charges read in
  partial kinetic energy density read in
  atomic valenz-charges read in
  non local Contribution for L=           2  read in
    real space projection operators read in
  non local Contribution for L=           2  read in
    real space projection operators read in
  non local Contribution for L=           0  read in
    real space projection operators read in
  non local Contribution for L=           0  read in
    real space projection operators read in
  non local Contribution for L=           1  read in
    real space projection operators read in
  non local Contribution for L=           1  read in
    real space projection operators read in
    PAW grid and wavefunctions read in
 
   number of l-projection  operators is LMAX  =           6
   number of lm-projection operators is LMMAX =          18
 

 ----------------------------------------------------------------------------- 
|                                                                             |
|  ADVICE TO THIS USER RUNNING 'VASP/VAMP'   (HEAR YOUR MASTER'S VOICE ...):  |
|                                                                             |
|      You enforced a specific xc-type in the INCAR file,                     |
|      a different type was found on the POTCAR file                          |
|          I HOPE YOU KNOW, WHAT YOU ARE  DOING                               |
|                                                                             |
 ----------------------------------------------------------------------------- 

  PAW_PBE O 08Apr2002                   :
 energy of atom  1       EATOM= -432.3788
 kinetic energy error for atom=    0.0208 (will be added to EATOM!!)
  PAW_PBE Mn 06Sep2000                  :
 energy of atom  2       EATOM= -416.7541
 kinetic energy error for atom=    0.0024 (will be added to EATOM!!)
 
 
 POSCAR: (Mn O2)2  (P4_2/mnm) ~  (Pearson #311740
  positions in direct lattice
  velocities in cartesian coordinates
  No initial velocities read in
 exchange correlation table for  LEXCH =       14
   RHO(1)=    0.500       N(1)  =     2000
   RHO(2)=  100.500       N(2)  =     4000
 


--------------------------------------------------------------------------------------------------------


 ion  position               nearest neighbor table
   1  0.305  0.305  0.000-   6 1.88   6 1.88   5 1.91
   2  0.805  0.195  0.500-   5 1.88   5 1.88   6 1.91
   3  0.195  0.805  0.500-   5 1.88   5 1.88   6 1.91
   4  0.695  0.695  0.000-   6 1.88   6 1.88   5 1.91
   5  0.000  0.000  0.000-   2 1.88   3 1.88   2 1.88   3 1.88   1 1.91   4 1.91
   6  0.500  0.500  0.500-   1 1.88   4 1.88   1 1.88   4 1.88   3 1.91   2 1.91
 
  LATTYP: Found a simple tetragonal cell.
 ALAT       =     4.4200000000
 C/A-ratio  =     0.6493212670
  
  Lattice vectors:
  
 A1 = (   4.4200000000,   0.0000000000,   0.0000000000)
 A2 = (   0.0000000000,   4.4200000000,   0.0000000000)
 A3 = (   0.0000000000,   0.0000000000,   2.8700000000)


Analysis of symmetry for initial positions (statically):
=====================================================================
 Subroutine PRICEL returns:
 Original cell was already a primitive cell.
 

 Routine SETGRP: Setting up the symmetry group for a 
 simple tetragonal supercell.


 Subroutine GETGRP returns: Found 16 space group operations
 (whereof  8 operations were pure point group operations)
 out of a pool of 16 trial point group operations.


The static configuration has the point symmetry D_2h.
 The point group associated with its full space group is D_4h.


Analysis of symmetry for dynamics (positions and initial velocities):
=====================================================================
 Subroutine PRICEL returns:
 Original cell was already a primitive cell.
 

 Routine SETGRP: Setting up the symmetry group for a 
 simple tetragonal supercell.


 Subroutine GETGRP returns: Found 16 space group operations
 (whereof  8 operations were pure point group operations)
 out of a pool of 16 trial point group operations.


The dynamic configuration has the point symmetry D_2h.
 The point group associated with its full space group is D_4h.


Analysis of magnetic symmetry:
=====================================================================

 Subroutine MAGSYM returns: Found 16 space group operations
 (whereof  8 operations were pure point group operations)
 out of a pool of 16 trial space group operations
 (whereof  8 operations were pure point group operations)
 and found also     1 'primitive' translations


The magnetic configuration has the point symmetry D_2h.
 The point group associated with its full space group is D_4h.


 irot  :   1
 --------------------------------------------------------------------
 isymop:   1   0   0
           0   1   0
           0   0   1

 gtrans:     0.0000000     0.0000000     0.0000000

 ptrans:     0.0000000     0.0000000     0.0000000
 rotmap:
 (   1->   1)  (   2->   2)  (   3->   3)  (   4->   4)  (   5->   5) 
 (   6->   6) 


 irot  :   2
 --------------------------------------------------------------------
 isymop:  -1   0   0
           0  -1   0
           0   0  -1

 gtrans:     0.0000000     0.0000000     0.0000000

 ptrans:     0.0000000     0.0000000     0.0000000
 rotmap:
 (   1->   4)  (   2->   3)  (   3->   2)  (   4->   1)  (   5->   5) 
 (   6->   6) 


 irot  :   3
 --------------------------------------------------------------------
 isymop:  -1   0   0
           0  -1   0
           0   0   1

 gtrans:     0.0000000     0.0000000     0.0000000

 ptrans:     0.0000000     0.0000000     0.0000000
 rotmap:
 (   1->   4)  (   2->   3)  (   3->   2)  (   4->   1)  (   5->   5) 
 (   6->   6) 


 irot  :   4
 --------------------------------------------------------------------
 isymop:   1   0   0
           0   1   0
           0   0  -1

 gtrans:     0.0000000     0.0000000     0.0000000

 ptrans:     0.0000000     0.0000000     0.0000000
 rotmap:
 (   1->   1)  (   2->   2)  (   3->   3)  (   4->   4)  (   5->   5) 
 (   6->   6) 


 irot  :   5
 --------------------------------------------------------------------
 isymop:   0   1   0
           1   0   0
           0   0  -1

 gtrans:     0.0000000     0.0000000     0.0000000

 ptrans:     0.0000000     0.0000000     0.0000000
 rotmap:
 (   1->   1)  (   2->   3)  (   3->   2)  (   4->   4)  (   5->   5) 
 (   6->   6) 


 irot  :   6
 --------------------------------------------------------------------
 isymop:   0  -1   0
          -1   0   0
           0   0   1

 gtrans:     0.0000000     0.0000000     0.0000000

 ptrans:     0.0000000     0.0000000     0.0000000
 rotmap:
 (   1->   4)  (   2->   2)  (   3->   3)  (   4->   1)  (   5->   5) 
 (   6->   6) 


 irot  :   7
 --------------------------------------------------------------------
 isymop:   0  -1   0
          -1   0   0
           0   0  -1

 gtrans:     0.0000000     0.0000000     0.0000000

 ptrans:     0.0000000     0.0000000     0.0000000
 rotmap:
 (   1->   4)  (   2->   2)  (   3->   3)  (   4->   1)  (   5->   5) 
 (   6->   6) 


 irot  :   8
 --------------------------------------------------------------------
 isymop:   0   1   0
           1   0   0
           0   0   1

 gtrans:     0.0000000     0.0000000     0.0000000

 ptrans:     0.0000000     0.0000000     0.0000000
 rotmap:
 (   1->   1)  (   2->   3)  (   3->   2)  (   4->   4)  (   5->   5) 
 (   6->   6) 


 irot  :   9
 --------------------------------------------------------------------
 isymop:   0  -1   0
           1   0   0
           0   0   1

 gtrans:     0.5000000     0.5000000     0.5000000

 ptrans:     0.0000000     0.0000000     0.0000000
 rotmap:
 (   1->   3)  (   2->   1)  (   3->   4)  (   4->   2)  (   5->   6) 
 (   6->   5) 


 irot  :  10
 --------------------------------------------------------------------
 isymop:   0   1   0
          -1   0   0
           0   0  -1

 gtrans:     0.5000000     0.5000000     0.5000000

 ptrans:     0.0000000     0.0000000     0.0000000
 rotmap:
 (   1->   2)  (   2->   4)  (   3->   1)  (   4->   3)  (   5->   6) 
 (   6->   5) 


 irot  :  11
 --------------------------------------------------------------------
 isymop:   0   1   0
          -1   0   0
           0   0   1

 gtrans:     0.5000000     0.5000000     0.5000000

 ptrans:     0.0000000     0.0000000     0.0000000
 rotmap:
 (   1->   2)  (   2->   4)  (   3->   1)  (   4->   3)  (   5->   6) 
 (   6->   5) 


 irot  :  12
 --------------------------------------------------------------------
 isymop:   0  -1   0
           1   0   0
           0   0  -1

 gtrans:     0.5000000     0.5000000     0.5000000

 ptrans:     0.0000000     0.0000000     0.0000000
 rotmap:
 (   1->   3)  (   2->   1)  (   3->   4)  (   4->   2)  (   5->   6) 
 (   6->   5) 


 irot  :  13
 --------------------------------------------------------------------
 isymop:  -1   0   0
           0   1   0
           0   0  -1

 gtrans:     0.5000000     0.5000000     0.5000000

 ptrans:     0.0000000     0.0000000     0.0000000
 rotmap:
 (   1->   3)  (   2->   4)  (   3->   1)  (   4->   2)  (   5->   6) 
 (   6->   5) 


 irot  :  14
 --------------------------------------------------------------------
 isymop:   1   0   0
           0  -1   0
           0   0   1

 gtrans:     0.5000000     0.5000000     0.5000000

 ptrans:     0.0000000     0.0000000     0.0000000
 rotmap:
 (   1->   2)  (   2->   1)  (   3->   4)  (   4->   3)  (   5->   6) 
 (   6->   5) 


 irot  :  15
 --------------------------------------------------------------------
 isymop:   1   0   0
           0  -1   0
           0   0  -1

 gtrans:     0.5000000     0.5000000     0.5000000

 ptrans:     0.0000000     0.0000000     0.0000000
 rotmap:
 (   1->   2)  (   2->   1)  (   3->   4)  (   4->   3)  (   5->   6) 
 (   6->   5) 


 irot  :  16
 --------------------------------------------------------------------
 isymop:  -1   0   0
           0   1   0
           0   0   1

 gtrans:     0.5000000     0.5000000     0.5000000

 ptrans:     0.0000000     0.0000000     0.0000000
 rotmap:
 (   1->   3)  (   2->   4)  (   3->   1)  (   4->   2)  (   5->   6) 
 (   6->   5) 
 
 
 KPOINTS: Automatic mesh                          

Automatic generation of k-mesh.
Space group operators:
 irot       det(A)        alpha          n_x          n_y          n_z        tau_x        tau_y        tau_z
    1     1.000000     0.000000     1.000000     0.000000     0.000000     0.000000     0.000000     0.000000
    2    -1.000000     0.000000     1.000000     0.000000     0.000000     0.000000     0.000000     0.000000
    3     1.000000   180.000000     0.000000     0.000000     1.000000     0.000000     0.000000     0.000000
    4    -1.000000   180.000000     0.000000     0.000000     1.000000     0.000000     0.000000     0.000000
    5     1.000000   180.000000     0.707107     0.707107     0.000000     0.000000     0.000000     0.000000
    6    -1.000000   180.000000     0.707107     0.707107     0.000000     0.000000     0.000000     0.000000
    7     1.000000   180.000000     0.707107    -0.707107     0.000000     0.000000     0.000000     0.000000
    8    -1.000000   180.000000     0.707107    -0.707107     0.000000     0.000000     0.000000     0.000000
    9     1.000000    90.000000     0.000000     0.000000    -1.000000     0.500000     0.500000     0.500000
   10    -1.000000    90.000000     0.000000     0.000000    -1.000000     0.500000     0.500000     0.500000
   11     1.000000    90.000000     0.000000     0.000000     1.000000     0.500000     0.500000     0.500000
   12    -1.000000    90.000000     0.000000     0.000000     1.000000     0.500000     0.500000     0.500000
   13     1.000000   180.000000     0.000000     1.000000     0.000000     0.500000     0.500000     0.500000
   14    -1.000000   180.000000     0.000000     1.000000     0.000000     0.500000     0.500000     0.500000
   15     1.000000   180.000000     1.000000     0.000000     0.000000     0.500000     0.500000     0.500000
   16    -1.000000   180.000000     1.000000     0.000000     0.000000     0.500000     0.500000     0.500000
 
 Subroutine IBZKPT returns following result:
 ===========================================
 
 Found     50 irreducible k-points:
 
 Following reciprocal coordinates:
            Coordinates               Weight
  0.000000  0.000000  0.000000      1.000000
  0.166667  0.000000  0.000000      4.000000
  0.333333  0.000000  0.000000      4.000000
  0.500000  0.000000  0.000000      2.000000
  0.166667  0.166667  0.000000      4.000000
  0.333333  0.166667  0.000000      8.000000
  0.500000  0.166667  0.000000      4.000000
  0.333333  0.333333  0.000000      4.000000
  0.500000  0.333333  0.000000      4.000000
  0.500000  0.500000  0.000000      1.000000
  0.000000  0.000000  0.111111      2.000000
  0.166667  0.000000  0.111111      8.000000
  0.333333  0.000000  0.111111      8.000000
  0.500000  0.000000  0.111111      4.000000
  0.166667  0.166667  0.111111      8.000000
  0.333333  0.166667  0.111111     16.000000
  0.500000  0.166667  0.111111      8.000000
  0.333333  0.333333  0.111111      8.000000
  0.500000  0.333333  0.111111      8.000000
  0.500000  0.500000  0.111111      2.000000
  0.000000  0.000000  0.222222      2.000000
  0.166667  0.000000  0.222222      8.000000
  0.333333  0.000000  0.222222      8.000000
  0.500000  0.000000  0.222222      4.000000
  0.166667  0.166667  0.222222      8.000000
  0.333333  0.166667  0.222222     16.000000
  0.500000  0.166667  0.222222      8.000000
  0.333333  0.333333  0.222222      8.000000
  0.500000  0.333333  0.222222      8.000000
  0.500000  0.500000  0.222222      2.000000
  0.000000  0.000000  0.333333      2.000000
  0.166667  0.000000  0.333333      8.000000
  0.333333  0.000000  0.333333      8.000000
  0.500000  0.000000  0.333333      4.000000
  0.166667  0.166667  0.333333      8.000000
  0.333333  0.166667  0.333333     16.000000
  0.500000  0.166667  0.333333      8.000000
  0.333333  0.333333  0.333333      8.000000
  0.500000  0.333333  0.333333      8.000000
  0.500000  0.500000  0.333333      2.000000
  0.000000  0.000000  0.444444      2.000000
  0.166667  0.000000  0.444444      8.000000
  0.333333  0.000000  0.444444      8.000000
  0.500000  0.000000  0.444444      4.000000
  0.166667  0.166667  0.444444      8.000000
  0.333333  0.166667  0.444444     16.000000
  0.500000  0.166667  0.444444      8.000000
  0.333333  0.333333  0.444444      8.000000
  0.500000  0.333333  0.444444      8.000000
  0.500000  0.500000  0.444444      2.000000
 
 Following cartesian coordinates:
            Coordinates               Weight
  0.000000  0.000000  0.000000      1.000000
  0.037707  0.000000  0.000000      4.000000
  0.075415  0.000000  0.000000      4.000000
  0.113122  0.000000  0.000000      2.000000
  0.037707  0.037707  0.000000      4.000000
  0.075415  0.037707  0.000000      8.000000
  0.113122  0.037707  0.000000      4.000000
  0.075415  0.075415  0.000000      4.000000
  0.113122  0.075415  0.000000      4.000000
  0.113122  0.113122  0.000000      1.000000
  0.000000  0.000000  0.038715      2.000000
  0.037707  0.000000  0.038715      8.000000
  0.075415  0.000000  0.038715      8.000000
  0.113122  0.000000  0.038715      4.000000
  0.037707  0.037707  0.038715      8.000000
  0.075415  0.037707  0.038715     16.000000
  0.113122  0.037707  0.038715      8.000000
  0.075415  0.075415  0.038715      8.000000
  0.113122  0.075415  0.038715      8.000000
  0.113122  0.113122  0.038715      2.000000
  0.000000  0.000000  0.077429      2.000000
  0.037707  0.000000  0.077429      8.000000
  0.075415  0.000000  0.077429      8.000000
  0.113122  0.000000  0.077429      4.000000
  0.037707  0.037707  0.077429      8.000000
  0.075415  0.037707  0.077429     16.000000
  0.113122  0.037707  0.077429      8.000000
  0.075415  0.075415  0.077429      8.000000
  0.113122  0.075415  0.077429      8.000000
  0.113122  0.113122  0.077429      2.000000
  0.000000  0.000000  0.116144      2.000000
  0.037707  0.000000  0.116144      8.000000
  0.075415  0.000000  0.116144      8.000000
  0.113122  0.000000  0.116144      4.000000
  0.037707  0.037707  0.116144      8.000000
  0.075415  0.037707  0.116144     16.000000
  0.113122  0.037707  0.116144      8.000000
  0.075415  0.075415  0.116144      8.000000
  0.113122  0.075415  0.116144      8.000000
  0.113122  0.113122  0.116144      2.000000
  0.000000  0.000000  0.154859      2.000000
  0.037707  0.000000  0.154859      8.000000
  0.075415  0.000000  0.154859      8.000000
  0.113122  0.000000  0.154859      4.000000
  0.037707  0.037707  0.154859      8.000000
  0.075415  0.037707  0.154859     16.000000
  0.113122  0.037707  0.154859      8.000000
  0.075415  0.075415  0.154859      8.000000
  0.113122  0.075415  0.154859      8.000000
  0.113122  0.113122  0.154859      2.000000
 


--------------------------------------------------------------------------------------------------------




 Dimension of arrays:
   k-points           NKPTS =     50   k-points in BZ     NKDIM =     50   number of bands    NBANDS=     24
   number of dos      NEDOS =    301   number of ions     NIONS =      6
   non local maximal  LDIM  =      6   non local SUM 2l+1 LMDIM =     18
   total plane-waves  NPLWV =  12544
   max r-space proj   IRMAX =      1   max aug-charges    IRDMAX=   8424
   dimension x,y,z NGX =    28 NGY =   28 NGZ =   16
   dimension x,y,z NGXF=    56 NGYF=   56 NGZF=   32
   support grid    NGXF=    56 NGYF=   56 NGZF=   32
   ions per type =               4   2
 NGX,Y,Z   is equivalent  to a cutoff of  10.53, 10.53,  9.27 a.u.
 NGXF,Y,Z  is equivalent  to a cutoff of  21.06, 21.06, 18.54 a.u.


 I would recommend the setting:
   dimension x,y,z NGX =    25 NGY =   25 NGZ =   16
 SYSTEM =  (Mn O2)2  (P4_2/mnm) ~  (Pearson        
 POSCAR =  (Mn O2)2  (P4_2/mnm) ~  (Pearson #311740

 Startparameter for this run:
   NWRITE =      1    write-flag & timer
   PREC   = normal    normal or accurate (medium, high low for compatibility)
   ISTART =      0    job   : 0-new  1-cont  2-samecut
   ICHARG =      2    charge: 1-file 2-atom 10-const
   ISPIN  =      2    spin polarized calculation?
   LNONCOLLINEAR =      F non collinear calculations
   LSORBIT =      F    spin-orbit coupling
   INIWAV =      1    electr: 0-lowe 1-rand  2-diag
   LASPH  =      F    aspherical Exc in radial PAW
   METAGGA=      F    non-selfconsistent MetaGGA calc.

 Electronic Relaxation 1
   ENCUT  =  520.0 eV  38.22 Ry    6.18 a.u.   8.22  8.22  5.34*2*pi/ulx,y,z
   ENINI  =  520.0     initial cutoff
   ENAUG  =  605.4 eV  augmentation charge cutoff
   NELM   =     60;   NELMIN=  2; NELMDL= -5     # of ELM steps 
   EDIFF  = 0.1E-03   stopping-criterion for ELM
   LREAL  =      F    real-space projection
   NLSPLINE    = F    spline interpolate recip. space projectors
   LCOMPAT=      F    compatible to vasp.4.4
   GGA_COMPAT  = T    GGA compatible to vasp.4.4-vasp.4.6
   LMAXPAW     = -100 max onsite density
   LMAXMIX     =    2 max onsite mixed and CHGCAR
   VOSKOWN=      1    Vosko Wilk Nusair interpolation
   ROPT   =    0.00000   0.00000
 Ionic relaxation
   EDIFFG = 0.1E-02   stopping-criterion for IOM
   NSW    =    100    number of steps for IOM
   NBLOCK =      1;   KBLOCK =    100    inner block; outer block 
   IBRION =      2    ionic relax: 0-MD 1-quasi-New 2-CG
   NFREE  =      1    steps in history (QN), initial steepest desc. (CG)
   ISIF   =      3    stress and relaxation
   IWAVPR =     11    prediction:  0-non 1-charg 2-wave 3-comb
   ISYM   =      2    0-nonsym 1-usesym 2-fastsym
   LCORR  =      T    Harris-Foulkes like correction to forces

   POTIM  = 0.5000    time-step for ionic-motion
   TEIN   =    0.0    initial temperature
   TEBEG  =    0.0;   TEEND  =   0.0 temperature during run
   SMASS  =  -3.00    Nose mass-parameter (am)
   estimated Nose-frequenzy (Omega)   =  0.10E-29 period in steps =****** mass=  -0.446E-27a.u.
   SCALEE = 1.0000    scale energy and forces
   NPACO  =    256;   APACO  = 16.0  distance and # of slots for P.C.
   PSTRESS=    0.0 pullay stress

  Mass of Ions in am
   POMASS =  16.00 54.94
  Ionic Valenz
   ZVAL   =   6.00  7.00
  Atomic Wigner-Seitz radii
   RWIGS  =  -1.00 -1.00
  virtual crystal weights 
   VCA    =   1.00  1.00
   NELECT =      38.0000    total number of electrons
   NUPDOWN=      -1.0000    fix difference up-down

 DOS related values:
   EMIN   =  10.00;   EMAX   =-10.00  energy-range for DOS
   EFERMI =   0.00
   ISMEAR =     1;   SIGMA  =   0.20  broadening in eV -4-tet -1-fermi 0-gaus

 Electronic relaxation 2 (details)
   IALGO  =     38    algorithm
   LDIAG  =      T    sub-space diagonalisation (order eigenvalues)
   LSUBROT=      T    optimize rotation matrix (better conditioning)
   TURBO    =      0    0=normal 1=particle mesh
   IRESTART =      0    0=no restart 2=restart with 2 vectors
   NREBOOT  =      0    no. of reboots
   NMIN     =      0    reboot dimension
   EREF     =   0.00    reference energy to select bands
   IMIX   =      4    mixing-type and parameters
     AMIX     =   0.40;   BMIX     =  1.00
     AMIX_MAG =   1.60;   BMIX_MAG =  1.00
     AMIN     =   0.10
     WC   =   100.;   INIMIX=   1;  MIXPRE=   1;  MAXMIX= -45

 Intra band minimization:
   WEIMIN = 0.0010     energy-eigenvalue tresh-hold
   EBREAK =  0.10E-05  absolut break condition
   DEPER  =   0.30     relativ break condition  

   TIME   =   0.40     timestep for ELM

  volume/ion in A,a.u.               =       9.34        63.06
  Fermi-wavevector in a.u.,A,eV,Ry     =   1.438006  2.717436 28.134941  2.067860
  Thomas-Fermi vector in A             =   2.557020
 
 Write flags
   LWAVE  =      F    write WAVECAR
   LCHARG =      F    write CHGCAR
   LVTOT  =      F    write LOCPOT, total local potential
   LVHAR  =      F    write LOCPOT, Hartree potential only
   LELF   =      F    write electronic localiz. function (ELF)
   LORBIT =      0    0 simple, 1 ext, 2 COOP (PROOUT)


 Dipole corrections
   LMONO  =      F    monopole corrections only (constant potential shift)
   LDIPOL =      F    correct potential (dipole corrections)
   IDIPOL =      0    1-x, 2-y, 3-z, 4-all directions 
   EPSILON=  1.0000000 bulk dielectric constant

 Exchange correlation treatment:
   GGA     =    PS    GGA type
   LEXCH   =    14    internal setting for exchange type
   VOSKOWN=      1    Vosko Wilk Nusair interpolation
   LHFCALC =     F    Hartree Fock is set to
   LHFONE  =     F    Hartree Fock one center treatment
   AEXX    =    0.0000 exact exchange contribution

 Linear response parameters
   LEPSILON=     F    determine dielectric tensor
   LRPA    =     F    only Hartree local field effects (RPA)
   LNABLA  =     F    use nabla operator in PAW spheres
   LVEL    =     F    velocity operator in full k-point grid
   LINTERFAST=   F  fast interpolation
   KINTER  =     0    interpolate to denser k-point grid
   CSHIFT  =0.1000    complex shift for real part using Kramers Kronig
   OMEGAMAX=  -1.0    maximum frequency
   DEG_THRESHOLD= 0.2000000E-02 threshold for treating states as degnerate
   RTIME   =    0.100 relaxation time in fs

 Orbital magnetization related:
   ORBITALMAG=     F  switch on orbital magnetization
   LCHIMAG   =     F  perturbation theory with respect to B field
   DQ        =  0.001000  dq finite difference perturbation B field



--------------------------------------------------------------------------------------------------------


 conjugate gradient relaxation of ions
 charge density and potential will be updated during run
 spin polarized calculation
 Variant of blocked Davidson
 Davidson routine will perform the subspace rotation
 perform sub-space diagonalisation
    after iterative eigenvector-optimisation
 modified Broyden-mixing scheme, WC =      100.0
 initial mixing is a Kerker type mixing with AMIX =  0.4000 and BMIX =      1.0000
 Hartree-type preconditioning will be used
 using additional bands            5
 reciprocal scheme for non local part
 use partial core corrections
 calculate Harris-corrections to forces 
   (improved forces if not selfconsistent)
 use gradient corrections 
 use of overlap-Matrix (Vanderbilt PP)
 Methfessel and Paxton  Order N= 1 SIGMA  =   0.20


--------------------------------------------------------------------------------------------------------


  energy-cutoff  :      520.00
  volume of cell :       56.07
      direct lattice vectors                 reciprocal lattice vectors
     4.420000000  0.000000000  0.000000000     0.226244344  0.000000000  0.000000000
     0.000000000  4.420000000  0.000000000     0.000000000  0.226244344  0.000000000
     0.000000000  0.000000000  2.870000000     0.000000000  0.000000000  0.348432056

  length of vectors
     4.420000000  4.420000000  2.870000000     0.226244344  0.226244344  0.348432056


 
 k-points in units of 2pi/SCALE and weight: Automatic mesh                          
   0.00000000  0.00000000  0.00000000       0.003
   0.03770739  0.00000000  0.00000000       0.012
   0.07541478  0.00000000  0.00000000       0.012
   0.11312217  0.00000000  0.00000000       0.006
   0.03770739  0.03770739  0.00000000       0.012
   0.07541478  0.03770739  0.00000000       0.025
   0.11312217  0.03770739  0.00000000       0.012
   0.07541478  0.07541478  0.00000000       0.012
   0.11312217  0.07541478  0.00000000       0.012
   0.11312217  0.11312217  0.00000000       0.003
   0.00000000  0.00000000  0.03871467       0.006
   0.03770739  0.00000000  0.03871467       0.025
   0.07541478  0.00000000  0.03871467       0.025
   0.11312217  0.00000000  0.03871467       0.012
   0.03770739  0.03770739  0.03871467       0.025
   0.07541478  0.03770739  0.03871467       0.049
   0.11312217  0.03770739  0.03871467       0.025
   0.07541478  0.07541478  0.03871467       0.025
   0.11312217  0.07541478  0.03871467       0.025
   0.11312217  0.11312217  0.03871467       0.006
   0.00000000  0.00000000  0.07742935       0.006
   0.03770739  0.00000000  0.07742935       0.025
   0.07541478  0.00000000  0.07742935       0.025
   0.11312217  0.00000000  0.07742935       0.012
   0.03770739  0.03770739  0.07742935       0.025
   0.07541478  0.03770739  0.07742935       0.049
   0.11312217  0.03770739  0.07742935       0.025
   0.07541478  0.07541478  0.07742935       0.025
   0.11312217  0.07541478  0.07742935       0.025
   0.11312217  0.11312217  0.07742935       0.006
   0.00000000  0.00000000  0.11614402       0.006
   0.03770739  0.00000000  0.11614402       0.025
   0.07541478  0.00000000  0.11614402       0.025
   0.11312217  0.00000000  0.11614402       0.012
   0.03770739  0.03770739  0.11614402       0.025
   0.07541478  0.03770739  0.11614402       0.049
   0.11312217  0.03770739  0.11614402       0.025
   0.07541478  0.07541478  0.11614402       0.025
   0.11312217  0.07541478  0.11614402       0.025
   0.11312217  0.11312217  0.11614402       0.006
   0.00000000  0.00000000  0.15485869       0.006
   0.03770739  0.00000000  0.15485869       0.025
   0.07541478  0.00000000  0.15485869       0.025
   0.11312217  0.00000000  0.15485869       0.012
   0.03770739  0.03770739  0.15485869       0.025
   0.07541478  0.03770739  0.15485869       0.049
   0.11312217  0.03770739  0.15485869       0.025
   0.07541478  0.07541478  0.15485869       0.025
   0.11312217  0.07541478  0.15485869       0.025
   0.11312217  0.11312217  0.15485869       0.006
 
 k-points in reciprocal lattice and weights: Automatic mesh                          
   0.00000000  0.00000000  0.00000000       0.003
   0.16666667  0.00000000  0.00000000       0.012
   0.33333333  0.00000000  0.00000000       0.012
   0.50000000  0.00000000  0.00000000       0.006
   0.16666667  0.16666667  0.00000000       0.012
   0.33333333  0.16666667  0.00000000       0.025
   0.50000000  0.16666667  0.00000000       0.012
   0.33333333  0.33333333  0.00000000       0.012
   0.50000000  0.33333333  0.00000000       0.012
   0.50000000  0.50000000  0.00000000       0.003
   0.00000000  0.00000000  0.11111111       0.006
   0.16666667  0.00000000  0.11111111       0.025
   0.33333333  0.00000000  0.11111111       0.025
   0.50000000  0.00000000  0.11111111       0.012
   0.16666667  0.16666667  0.11111111       0.025
   0.33333333  0.16666667  0.11111111       0.049
   0.50000000  0.16666667  0.11111111       0.025
   0.33333333  0.33333333  0.11111111       0.025
   0.50000000  0.33333333  0.11111111       0.025
   0.50000000  0.50000000  0.11111111       0.006
   0.00000000  0.00000000  0.22222222       0.006
   0.16666667  0.00000000  0.22222222       0.025
   0.33333333  0.00000000  0.22222222       0.025
   0.50000000  0.00000000  0.22222222       0.012
   0.16666667  0.16666667  0.22222222       0.025
   0.33333333  0.16666667  0.22222222       0.049
   0.50000000  0.16666667  0.22222222       0.025
   0.33333333  0.33333333  0.22222222       0.025
   0.50000000  0.33333333  0.22222222       0.025
   0.50000000  0.50000000  0.22222222       0.006
   0.00000000  0.00000000  0.33333333       0.006
   0.16666667  0.00000000  0.33333333       0.025
   0.33333333  0.00000000  0.33333333       0.025
   0.50000000  0.00000000  0.33333333       0.012
   0.16666667  0.16666667  0.33333333       0.025
   0.33333333  0.16666667  0.33333333       0.049
   0.50000000  0.16666667  0.33333333       0.025
   0.33333333  0.33333333  0.33333333       0.025
   0.50000000  0.33333333  0.33333333       0.025
   0.50000000  0.50000000  0.33333333       0.006
   0.00000000  0.00000000  0.44444444       0.006
   0.16666667  0.00000000  0.44444444       0.025
   0.33333333  0.00000000  0.44444444       0.025
   0.50000000  0.00000000  0.44444444       0.012
   0.16666667  0.16666667  0.44444444       0.025
   0.33333333  0.16666667  0.44444444       0.049
   0.50000000  0.16666667  0.44444444       0.025
   0.33333333  0.33333333  0.44444444       0.025
   0.50000000  0.33333333  0.44444444       0.025
   0.50000000  0.50000000  0.44444444       0.006
 
 position of ions in fractional coordinates (direct lattice) 
   0.30478000  0.30478000  0.00000000
   0.80478000  0.19522000  0.50000000
   0.19522000  0.80478000  0.50000000
   0.69522000  0.69522000  0.00000000
   0.00000000  0.00000000  0.00000000
   0.50000000  0.50000000  0.50000000
 
 position of ions in cartesian coordinates  (Angst):
   1.34712760  1.34712760  0.00000000
   3.55712760  0.86287240  1.43500000
   0.86287240  3.55712760  1.43500000
   3.07287240  3.07287240  0.00000000
   0.00000000  0.00000000  0.00000000
   2.21000000  2.21000000  1.43500000
 


--------------------------------------------------------------------------------------------------------


 k-point  1 :   0.0000 0.0000 0.0000  plane waves:    1543
 k-point  2 :   0.1667 0.0000 0.0000  plane waves:    1505
 k-point  3 :   0.3333 0.0000 0.0000  plane waves:    1522
 k-point  4 :   0.5000 0.0000 0.0000  plane waves:    1508
 k-point  5 :   0.1667 0.1667 0.0000  plane waves:    1515
 k-point  6 :   0.3333 0.1667 0.0000  plane waves:    1516
 k-point  7 :   0.5000 0.1667 0.0000  plane waves:    1508
 k-point  8 :   0.3333 0.3333 0.0000  plane waves:    1518
 k-point  9 :   0.5000 0.3333 0.0000  plane waves:    1520
 k-point 10 :   0.5000 0.5000 0.0000  plane waves:    1504
 k-point 11 :   0.0000 0.0000 0.1111  plane waves:    1511
 k-point 12 :   0.1667 0.0000 0.1111  plane waves:    1520
 k-point 13 :   0.3333 0.0000 0.1111  plane waves:    1511
 k-point 14 :   0.5000 0.0000 0.1111  plane waves:    1516
 k-point 15 :   0.1667 0.1667 0.1111  plane waves:    1515
 k-point 16 :   0.3333 0.1667 0.1111  plane waves:    1510
 k-point 17 :   0.5000 0.1667 0.1111  plane waves:    1522
 k-point 18 :   0.3333 0.3333 0.1111  plane waves:    1514
 k-point 19 :   0.5000 0.3333 0.1111  plane waves:    1520
 k-point 20 :   0.5000 0.5000 0.1111  plane waves:    1520
 k-point 21 :   0.0000 0.0000 0.2222  plane waves:    1503
 k-point 22 :   0.1667 0.0000 0.2222  plane waves:    1511
 k-point 23 :   0.3333 0.0000 0.2222  plane waves:    1503
 k-point 24 :   0.5000 0.0000 0.2222  plane waves:    1504
 k-point 25 :   0.1667 0.1667 0.2222  plane waves:    1509
 k-point 26 :   0.3333 0.1667 0.2222  plane waves:    1511
 k-point 27 :   0.5000 0.1667 0.2222  plane waves:    1506
 k-point 28 :   0.3333 0.3333 0.2222  plane waves:    1511
 k-point 29 :   0.5000 0.3333 0.2222  plane waves:    1518
 k-point 30 :   0.5000 0.5000 0.2222  plane waves:    1528
 k-point 31 :   0.0000 0.0000 0.3333  plane waves:    1503
 k-point 32 :   0.1667 0.0000 0.3333  plane waves:    1500
 k-point 33 :   0.3333 0.0000 0.3333  plane waves:    1500
 k-point 34 :   0.5000 0.0000 0.3333  plane waves:    1498
 k-point 35 :   0.1667 0.1667 0.3333  plane waves:    1498
 k-point 36 :   0.3333 0.1667 0.3333  plane waves:    1505
 k-point 37 :   0.5000 0.1667 0.3333  plane waves:    1508
 k-point 38 :   0.3333 0.3333 0.3333  plane waves:    1516
 k-point 39 :   0.5000 0.3333 0.3333  plane waves:    1504
 k-point 40 :   0.5000 0.5000 0.3333  plane waves:    1516
 k-point 41 :   0.0000 0.0000 0.4444  plane waves:    1530
 k-point 42 :   0.1667 0.0000 0.4444  plane waves:    1507
 k-point 43 :   0.3333 0.0000 0.4444  plane waves:    1501
 k-point 44 :   0.5000 0.0000 0.4444  plane waves:    1518
 k-point 45 :   0.1667 0.1667 0.4444  plane waves:    1517
 k-point 46 :   0.3333 0.1667 0.4444  plane waves:    1506
 k-point 47 :   0.5000 0.1667 0.4444  plane waves:    1502
 k-point 48 :   0.3333 0.3333 0.4444  plane waves:    1503
 k-point 49 :   0.5000 0.3333 0.4444  plane waves:    1508
 k-point 50 :   0.5000 0.5000 0.4444  plane waves:    1504

 maximum and minimum number of plane-waves per node :       400      366

 maximum number of plane-waves:      1543
 maximum index in each direction: 
   IXMAX=    8   IYMAX=    8   IZMAX=    5
   IXMIN=   -8   IYMIN=   -8   IZMIN=   -5

 WARNING: aliasing errors must be expected set NGX to  34 to avoid them
 WARNING: aliasing errors must be expected set NGY to  34 to avoid them
 WARNING: aliasing errors must be expected set NGZ to  22 to avoid them
 aliasing errors are usually negligible using standard VASP settings
 and one can safely disregard these warnings

 parallel 3D FFT for wavefunctions:
    minimum data exchange during FFTs selected (reduces bandwidth)
 parallel 3D FFT for charge:
    minimum data exchange during FFTs selected (reduces bandwidth)


 total amount of memory used by VASP on root node    38564. kBytes
========================================================================

   base      :      30000. kBytes
   nonl-proj :       5682. kBytes
   fftplans  :        227. kBytes
   grid      :        558. kBytes
   one-center:         62. kBytes
   wavefun   :       2035. kBytes
 
 Broyden mixing: mesh for mixing (old mesh)
   NGX = 17   NGY = 17   NGZ = 11
  (NGX  = 56   NGY  = 56   NGZ  = 32)
  gives a total of   3179 points

 initial charge density was supplied:
 charge density of overlapping atoms calculated
 number of electron      38.0000000 magnetization       0.0000000
 keeping initial charge density in first step


--------------------------------------------------------------------------------------------------------


 Maximum index for augmentation-charges          463 (set IRDMAX)


--------------------------------------------------------------------------------------------------------


 First call to EWALD:  gamma=   0.463
 Maximum number of real-space cells 2x 2x 3
 Maximum number of reciprocal cells 3x 3x 2

 FEWALD executed in parallel
    FEWALD:  cpu time    0.00: real time    0.00


----------------------------------------- Iteration    1(   1)  ---------------------------------------


    POTLOK:  cpu time    0.01: real time    0.01
    SETDIJ:  cpu time    0.01: real time    0.01
     EDDAV:  cpu time    0.77: real time    0.92
       DOS:  cpu time    0.00: real time    0.00
    --------------------------------------------
      LOOP:  cpu time    0.80: real time    1.01

 eigenvalue-minimisations  :  4824
 total energy-change (2. order) : 0.4556895E+03  (-0.1856486E+04)
 number of electron      38.0000000 magnetization      -0.0000000
 augmentation part       38.0000000 magnetization      -0.0000000

 Free energy of the ion-electron system (eV)
  ---------------------------------------------------
  alpha Z        PSCENC =       169.68454504
  Ewald energy   TEWEN  =     -2219.86739494
  -1/2 Hartree   DENC   =      -552.56175704
  -exchange  EXHF       =         0.00000000
  -V(xc)+E(xc)   XCENC  =        93.23554476
  PAW double counting   =      2192.87916522    -2169.73980493
  entropy T*S    EENTRO =        -0.00643980
  eigenvalues    EBANDS =       386.78039767
  atomic energy  EATOM  =      2555.28521479
  ---------------------------------------------------
  free energy    TOTEN  =       455.68947076 eV

  energy without entropy =      455.69591056  energy(sigma->0) =      455.69161736


--------------------------------------------------------------------------------------------------------




----------------------------------------- Iteration    1(   2)  ---------------------------------------


     EDDAV:  cpu time    0.71: real time    0.71
       DOS:  cpu time    0.00: real time    0.00
    --------------------------------------------
      LOOP:  cpu time    0.71: real time    0.78

 eigenvalue-minimisations  :  4864
 total energy-change (2. order) :-0.4277838E+03  (-0.4164075E+03)
 number of electron      38.0000000 magnetization      -0.0000000
 augmentation part       38.0000000 magnetization      -0.0000000

 Free energy of the ion-electron system (eV)
  ---------------------------------------------------
  alpha Z        PSCENC =       169.68454504
  Ewald energy   TEWEN  =     -2219.86739494
  -1/2 Hartree   DENC   =      -552.56175704
  -exchange  EXHF       =         0.00000000
  -V(xc)+E(xc)   XCENC  =        93.23554476
  PAW double counting   =      2192.87916522    -2169.73980493
  entropy T*S    EENTRO =         0.00422260
  eigenvalues    EBANDS =       -41.01410819
  atomic energy  EATOM  =      2555.28521479
  ---------------------------------------------------
  free energy    TOTEN  =        27.90562731 eV

  energy without entropy =       27.90140470  energy(sigma->0) =       27.90421977


--------------------------------------------------------------------------------------------------------




----------------------------------------- Iteration    1(   3)  ---------------------------------------


     EDDAV:  cpu time    1.06: real time    1.06
       DOS:  cpu time    0.00: real time    0.00
    --------------------------------------------
      LOOP:  cpu time    1.06: real time    1.14

 eigenvalue-minimisations  :  7912
 total energy-change (2. order) :-0.8818228E+02  (-0.8491913E+02)
 number of electron      38.0000000 magnetization      -0.0000000
 augmentation part       38.0000000 magnetization      -0.0000000

 Free energy of the ion-electron system (eV)
  ---------------------------------------------------
  alpha Z        PSCENC =       169.68454504
  Ewald energy   TEWEN  =     -2219.86739494
  -1/2 Hartree   DENC   =      -552.56175704
  -exchange  EXHF       =         0.00000000
  -V(xc)+E(xc)   XCENC  =        93.23554476
  PAW double counting   =      2192.87916522    -2169.73980493
  entropy T*S    EENTRO =         0.00306419
  eigenvalues    EBANDS =      -129.19523259
  atomic energy  EATOM  =      2555.28521479
  ---------------------------------------------------
  free energy    TOTEN  =       -60.27665551 eV

  energy without entropy =      -60.27971970  energy(sigma->0) =      -60.27767691


--------------------------------------------------------------------------------------------------------




----------------------------------------- Iteration    1(   4)  ---------------------------------------


     EDDAV:  cpu time    0.94: real time    0.95
       DOS:  cpu time    0.00: real time    0.00
    --------------------------------------------
      LOOP:  cpu time    0.94: real time    1.09

 eigenvalue-minimisations  :  6928
 total energy-change (2. order) :-0.5854350E+01  (-0.5503154E+01)
 number of electron      38.0000000 magnetization      -0.0000000
 augmentation part       38.0000000 magnetization      -0.0000000

 Free energy of the ion-electron system (eV)
  ---------------------------------------------------
  alpha Z        PSCENC =       169.68454504
  Ewald energy   TEWEN  =     -2219.86739494
  -1/2 Hartree   DENC   =      -552.56175704
  -exchange  EXHF       =         0.00000000
  -V(xc)+E(xc)   XCENC  =        93.23554476
  PAW double counting   =      2192.87916522    -2169.73980493
  entropy T*S    EENTRO =         0.00809071
  eigenvalues    EBANDS =      -135.05460886
  atomic energy  EATOM  =      2555.28521479
  ---------------------------------------------------
  free energy    TOTEN  =       -66.13100525 eV

  energy without entropy =      -66.13909597  energy(sigma->0) =      -66.13370216


--------------------------------------------------------------------------------------------------------




----------------------------------------- Iteration    1(   5)  ---------------------------------------


     EDDAV:  cpu time    0.93: real time    0.93
       DOS:  cpu time    0.00: real time    0.00
    CHARGE:  cpu time    0.02: real time    0.02
    MIXING:  cpu time    0.01: real time    0.01
    --------------------------------------------
      LOOP:  cpu time    0.96: real time    1.04

 eigenvalue-minimisations  :  6872
 total energy-change (2. order) :-0.1463016E+00  (-0.1462826E+00)
 number of electron      38.0000137 magnetization       0.0000000
 augmentation part        7.5013912 magnetization       0.0000000

 Broyden mixing:
  rms(total) = 0.39605E+01    rms(broyden)= 0.39603E+01
  rms(prec ) = 0.67384E+01
  weight for this iteration     100.00

 Free energy of the ion-electron system (eV)
  ---------------------------------------------------
  alpha Z        PSCENC =       169.68454504
  Ewald energy   TEWEN  =     -2219.86739494
  -1/2 Hartree   DENC   =      -552.56175704
  -exchange  EXHF       =         0.00000000
  -V(xc)+E(xc)   XCENC  =        93.23554476
  PAW double counting   =      2192.87916522    -2169.73980493
  entropy T*S    EENTRO =         0.00769798
  eigenvalues    EBANDS =      -135.20051769
  atomic energy  EATOM  =      2555.28521479
  ---------------------------------------------------
  free energy    TOTEN  =       -66.27730682 eV

  energy without entropy =      -66.28500480  energy(sigma->0) =      -66.27987281


--------------------------------------------------------------------------------------------------------




----------------------------------------- Iteration    1(   6)  ---------------------------------------


    POTLOK:  cpu time    0.01: real time    0.01
    SETDIJ:  cpu time    0.01: real time    0.00
     EDDAV:  cpu time    0.94: real time    0.95
       DOS:  cpu time    0.00: real time    0.00
    CHARGE:  cpu time    0.02: real time    0.02
    MIXING:  cpu time    0.00: real time    0.01
    --------------------------------------------
      LOOP:  cpu time    0.98: real time    1.11

 eigenvalue-minimisations  :  7136
 total energy-change (2. order) : 0.3054945E+01  (-0.1642363E+02)
 number of electron      38.0000087 magnetization      -0.0000000
 augmentation part       12.0051345 magnetization      -0.0000000

 Broyden mixing:
  rms(total) = 0.59387E+01    rms(broyden)= 0.59383E+01
  rms(prec ) = 0.10678E+02
  weight for this iteration     100.00

 eigenvalues of (default mixing * dielectric matrix)
  average eigenvalue GAMMA=   0.2552
  0.2552

 Free energy of the ion-electron system (eV)
  ---------------------------------------------------
  alpha Z        PSCENC =       169.68454504
  Ewald energy   TEWEN  =     -2219.86739494
  -1/2 Hartree   DENC   =      -573.43050349
  -exchange  EXHF       =         0.00000000
  -V(xc)+E(xc)   XCENC  =        96.72263865
  PAW double counting   =      2604.80372619    -2576.72196476
  entropy T*S    EENTRO =        -0.00548076
  eigenvalues    EBANDS =      -119.69314300
  atomic energy  EATOM  =      2555.28521479
  ---------------------------------------------------
  free energy    TOTEN  =       -63.22236228 eV

  energy without entropy =      -63.21688152  energy(sigma->0) =      -63.22053536


--------------------------------------------------------------------------------------------------------




----------------------------------------- Iteration    1(   7)  ---------------------------------------


    POTLOK:  cpu time    0.01: real time    0.01
    SETDIJ:  cpu time    0.00: real time    0.00
     EDDAV:  cpu time    1.05: real time    1.05
       DOS:  cpu time    0.00: real time    0.00
    CHARGE:  cpu time    0.02: real time    0.02
    MIXING:  cpu time    0.00: real time    0.00
    --------------------------------------------
      LOOP:  cpu time    1.09: real time    1.23

 eigenvalue-minimisations  :  7976
 total energy-change (2. order) : 0.1101029E+02  (-0.1834279E+02)
 number of electron      38.0000118 magnetization      -0.0000000
 augmentation part        7.8196150 magnetization      -0.0000000

 Broyden mixing:
  rms(total) = 0.17788E+01    rms(broyden)= 0.17782E+01
  rms(prec ) = 0.30397E+01
  weight for this iteration     100.00

 eigenvalues of (default mixing * dielectric matrix)
  average eigenvalue GAMMA=   0.7013
  1.1164  0.2862

 Free energy of the ion-electron system (eV)
  ---------------------------------------------------
  alpha Z        PSCENC =       169.68454504
  Ewald energy   TEWEN  =     -2219.86739494
  -1/2 Hartree   DENC   =      -568.11681498
  -exchange  EXHF       =         0.00000000
  -V(xc)+E(xc)   XCENC  =        93.06021908
  PAW double counting   =      2746.71991299    -2725.04698085
  entropy T*S    EENTRO =         0.00396228
  eigenvalues    EBANDS =      -103.93473551
  atomic energy  EATOM  =      2555.28521479
  ---------------------------------------------------
  free energy    TOTEN  =       -52.21207210 eV

  energy without entropy =      -52.21603438  energy(sigma->0) =      -52.21339286


--------------------------------------------------------------------------------------------------------




----------------------------------------- Iteration    1(   8)  ---------------------------------------


    POTLOK:  cpu time    0.01: real time    0.01
    SETDIJ:  cpu time    0.00: real time    0.00
     EDDAV:  cpu time    0.94: real time    0.94
       DOS:  cpu time    0.00: real time    0.00
    CHARGE:  cpu time    0.02: real time    0.02
    MIXING:  cpu time    0.00: real time    0.00
    --------------------------------------------
      LOOP:  cpu time    0.98: real time    1.06

 eigenvalue-minimisations  :  7104
 total energy-change (2. order) : 0.1559165E+01  (-0.1040373E+01)
 number of electron      38.0000117 magnetization      -0.0000000
 augmentation part        8.4173635 magnetization      -0.0000000

 Broyden mixing:
  rms(total) = 0.73112E+00    rms(broyden)= 0.73107E+00
  rms(prec ) = 0.12941E+01
  weight for this iteration     100.00

 eigenvalues of (default mixing * dielectric matrix)
  average eigenvalue GAMMA=   0.8505
  1.6104  0.3039  0.6371

 Free energy of the ion-electron system (eV)
  ---------------------------------------------------
  alpha Z        PSCENC =       169.68454504
  Ewald energy   TEWEN  =     -2219.86739494
  -1/2 Hartree   DENC   =      -558.29391350
  -exchange  EXHF       =         0.00000000
  -V(xc)+E(xc)   XCENC  =        94.21179284
  PAW double counting   =      3047.14692036    -3025.75311622
  entropy T*S    EENTRO =         0.00274348
  eigenvalues    EBANDS =      -113.06969853
  atomic energy  EATOM  =      2555.28521479
  ---------------------------------------------------
  free energy    TOTEN  =       -50.65290668 eV

  energy without entropy =      -50.65565016  energy(sigma->0) =      -50.65382117


--------------------------------------------------------------------------------------------------------




----------------------------------------- Iteration    1(   9)  ---------------------------------------


    POTLOK:  cpu time    0.01: real time    0.01
    SETDIJ:  cpu time    0.00: real time    0.00
     EDDAV:  cpu time    0.99: real time    0.99
       DOS:  cpu time    0.00: real time    0.00
    CHARGE:  cpu time    0.02: real time    0.02
    MIXING:  cpu time    0.00: real time    0.00
    --------------------------------------------
      LOOP:  cpu time    1.03: real time    1.11

 eigenvalue-minimisations  :  7464
 total energy-change (2. order) : 0.3179344E+00  (-0.1544764E+00)
 number of electron      38.0000113 magnetization      -0.0000000
 augmentation part        8.7253625 magnetization      -0.0000000

 Broyden mixing:
  rms(total) = 0.16736E+00    rms(broyden)= 0.16728E+00
  rms(prec ) = 0.20501E+00
  weight for this iteration     100.00

 eigenvalues of (default mixing * dielectric matrix)
  average eigenvalue GAMMA=   0.9403
  1.7895  1.0535  0.3069  0.6114

 Free energy of the ion-electron system (eV)
  ---------------------------------------------------
  alpha Z        PSCENC =       169.68454504
  Ewald energy   TEWEN  =     -2219.86739494
  -1/2 Hartree   DENC   =      -558.17358496
  -exchange  EXHF       =         0.00000000
  -V(xc)+E(xc)   XCENC  =        94.65738862
  PAW double counting   =      3200.31239502    -3179.27697205
  entropy T*S    EENTRO =         0.00398735
  eigenvalues    EBANDS =      -112.96055117
  atomic energy  EATOM  =      2555.28521479
  ---------------------------------------------------
  free energy    TOTEN  =       -50.33497230 eV

  energy without entropy =      -50.33895965  energy(sigma->0) =      -50.33630141


--------------------------------------------------------------------------------------------------------




----------------------------------------- Iteration    1(  10)  ---------------------------------------


    POTLOK:  cpu time    0.01: real time    0.01
    SETDIJ:  cpu time    0.01: real time    0.00
     EDDAV:  cpu time    0.91: real time    0.91
       DOS:  cpu time    0.00: real time    0.00
    CHARGE:  cpu time    0.02: real time    0.02
    MIXING:  cpu time    0.00: real time    0.00
    --------------------------------------------
      LOOP:  cpu time    0.95: real time    1.02

 eigenvalue-minimisations  :  6720
 total energy-change (2. order) :-0.2638140E-02  (-0.1148322E-01)
 number of electron      38.0000113 magnetization       0.0000000
 augmentation part        8.6859482 magnetization       0.0000000

 Broyden mixing:
  rms(total) = 0.83650E-01    rms(broyden)= 0.83642E-01
  rms(prec ) = 0.11695E+00
  weight for this iteration     100.00

 eigenvalues of (default mixing * dielectric matrix)
  average eigenvalue GAMMA=   0.9398
  1.8227  0.3069  0.9627  0.9627  0.6441

 Free energy of the ion-electron system (eV)
  ---------------------------------------------------
  alpha Z        PSCENC =       169.68454504
  Ewald energy   TEWEN  =     -2219.86739494
  -1/2 Hartree   DENC   =      -557.91688724
  -exchange  EXHF       =         0.00000000
  -V(xc)+E(xc)   XCENC  =        94.79948485
  PAW double counting   =      3222.81958518    -3202.34030089
  entropy T*S    EENTRO =         0.00408306
  eigenvalues    EBANDS =      -112.80594028
  atomic energy  EATOM  =      2555.28521479
  ---------------------------------------------------
  free energy    TOTEN  =       -50.33761044 eV

  energy without entropy =      -50.34169350  energy(sigma->0) =      -50.33897146


--------------------------------------------------------------------------------------------------------




----------------------------------------- Iteration    1(  11)  ---------------------------------------


    POTLOK:  cpu time    0.01: real time    0.01
    SETDIJ:  cpu time    0.00: real time    0.00
     EDDAV:  cpu time    1.00: real time    1.00
       DOS:  cpu time    0.00: real time    0.00
    CHARGE:  cpu time    0.02: real time    0.02
    MIXING:  cpu time    0.00: real time    0.00
    --------------------------------------------
      LOOP:  cpu time    1.04: real time    1.11

 eigenvalue-minimisations  :  7552
 total energy-change (2. order) : 0.3892461E-02  (-0.8245875E-03)
 number of electron      38.0000114 magnetization       0.0000000
 augmentation part        8.6926719 magnetization       0.0000000

 Broyden mixing:
  rms(total) = 0.41853E-01    rms(broyden)= 0.41852E-01
  rms(prec ) = 0.58310E-01
  weight for this iteration     100.00

 eigenvalues of (default mixing * dielectric matrix)
  average eigenvalue GAMMA=   1.0320
  2.0355  1.6150  0.3070  0.8517  0.6422  0.7404

 Free energy of the ion-electron system (eV)
  ---------------------------------------------------
  alpha Z        PSCENC =       169.68454504
  Ewald energy   TEWEN  =     -2219.86739494
  -1/2 Hartree   DENC   =      -556.91062612
  -exchange  EXHF       =         0.00000000
  -V(xc)+E(xc)   XCENC  =        94.72400016
  PAW double counting   =      3243.35582977    -3223.09016140
  entropy T*S    EENTRO =         0.00406702
  eigenvalues    EBANDS =      -113.51919231
  atomic energy  EATOM  =      2555.28521479
  ---------------------------------------------------
  free energy    TOTEN  =       -50.33371798 eV

  energy without entropy =      -50.33778500  energy(sigma->0) =      -50.33507365


--------------------------------------------------------------------------------------------------------




----------------------------------------- Iteration    1(  12)  ---------------------------------------


    POTLOK:  cpu time    0.01: real time    0.01
    SETDIJ:  cpu time    0.00: real time    0.00
     EDDAV:  cpu time    1.01: real time    1.01
       DOS:  cpu time    0.00: real time    0.00
    CHARGE:  cpu time    0.02: real time    0.02
    MIXING:  cpu time    0.00: real time    0.00
    --------------------------------------------
      LOOP:  cpu time    1.05: real time    1.13

 eigenvalue-minimisations  :  7688
 total energy-change (2. order) : 0.9676136E-03  (-0.1800098E-03)
 number of electron      38.0000114 magnetization      -0.0000000
 augmentation part        8.7011327 magnetization      -0.0000000

 Broyden mixing:
  rms(total) = 0.17379E-01    rms(broyden)= 0.17378E-01
  rms(prec ) = 0.19055E-01
  weight for this iteration     100.00

 eigenvalues of (default mixing * dielectric matrix)
  average eigenvalue GAMMA=   1.0886
  2.1405  1.9471  0.3070  1.1063  0.8147  0.6182  0.6863

 Free energy of the ion-electron system (eV)
  ---------------------------------------------------
  alpha Z        PSCENC =       169.68454504
  Ewald energy   TEWEN  =     -2219.86739494
  -1/2 Hartree   DENC   =      -556.56710814
  -exchange  EXHF       =         0.00000000
  -V(xc)+E(xc)   XCENC  =        94.76878023
  PAW double counting   =      3254.90762215    -3234.84648044
  entropy T*S    EENTRO =         0.00417897
  eigenvalues    EBANDS =      -113.70210803
  atomic energy  EATOM  =      2555.28521479
  ---------------------------------------------------
  free energy    TOTEN  =       -50.33275036 eV

  energy without entropy =      -50.33692934  energy(sigma->0) =      -50.33414335


--------------------------------------------------------------------------------------------------------




----------------------------------------- Iteration    1(  13)  ---------------------------------------


    POTLOK:  cpu time    0.01: real time    0.01
    SETDIJ:  cpu time    0.00: real time    0.00
     EDDAV:  cpu time    0.53: real time    0.53
       DOS:  cpu time    0.00: real time    0.00
    --------------------------------------------
      LOOP:  cpu time    0.54: real time    0.63

 eigenvalue-minimisations  :  2760
 total energy-change (2. order) : 0.8567429E-04  (-0.1354880E-04)
 number of electron      38.0000114 magnetization      -0.0000000
 augmentation part        8.7011327 magnetization      -0.0000000

 Free energy of the ion-electron system (eV)
  ---------------------------------------------------
  alpha Z        PSCENC =       169.68454504
  Ewald energy   TEWEN  =     -2219.86739494
  -1/2 Hartree   DENC   =      -556.64279496
  -exchange  EXHF       =         0.00000000
  -V(xc)+E(xc)   XCENC  =        94.74418904
  PAW double counting   =      3254.83373222    -3234.77124130
  entropy T*S    EENTRO =         0.00416878
  eigenvalues    EBANDS =      -113.60308335
  atomic energy  EATOM  =      2555.28521479
  ---------------------------------------------------
  free energy    TOTEN  =       -50.33266469 eV

  energy without entropy =      -50.33683347  energy(sigma->0) =      -50.33405428


--------------------------------------------------------------------------------------------------------




 average (electrostatic) potential at core
  the test charge radii are     0.7215  1.0210
  (the norm of the test charge is              1.0000)
       1 -71.4880       2 -71.4880       3 -71.4880       4 -71.4880       5 -46.8633
       6 -46.8633
 
 
 
 E-fermi :   3.7885     XC(G=0): -12.0723     alpha+bet :-11.3739


 spin component 1

 k-point   1 :       0.0000    0.0000    0.0000
  band No.  band energies     occupation 
      1     -16.0287      1.00000
      2     -14.1688      1.00000
      3     -13.8498      1.00000
      4     -13.7548      1.00000
      5      -3.9825      1.00000
      6      -3.1425      1.00000
      7      -2.5000      1.00000
      8      -1.9458      1.00000
      9      -1.3957      1.00000
     10      -0.2132      1.00000
     11      -0.1375      1.00000
     12       0.3742      1.00000
     13       1.5836      1.00000
     14       1.6459      1.00000
     15       2.1729      1.00000
     16       2.2685      1.00000
     17       2.6878      1.00000
     18       2.7408      1.00000
     19       3.3821      1.00720
     20       3.4598      1.02107
     21       4.0761     -0.03030
     22       4.8765     -0.00000
     23       5.7018     -0.00000
     24       6.8355     -0.00000

 k-point   2 :       0.1667    0.0000    0.0000
  band No.  band energies     occupation 
      1     -15.9231      1.00000
      2     -14.3049      1.00000
      3     -13.8540      1.00000
      4     -13.7760      1.00000
      5      -3.7926      1.00000
      6      -3.0558      1.00000
      7      -2.3141      1.00000
      8      -1.9410      1.00000
      9      -1.3664      1.00000
     10      -0.4334      1.00000
     11      -0.2410      1.00000
     12       0.3364      1.00000
     13       1.4702      1.00000
     14       1.5320      1.00000
     15       1.8857      1.00000
     16       2.2778      1.00000
     17       2.3650      1.00000
     18       2.7957      1.00000
     19       3.3226      1.00240
     20       3.9712     -0.01365
     21       4.2737     -0.00160
     22       5.0486     -0.00000
     23       5.6587     -0.00000
     24       6.7232     -0.00000

 k-point   3 :       0.3333    0.0000    0.0000
  band No.  band energies     occupation 
      1     -15.6232      1.00000
      2     -14.6875      1.00000
      3     -13.8555      1.00000
      4     -13.8021      1.00000
      5      -3.4106      1.00000
      6      -2.8446      1.00000
      7      -1.9323      1.00000
      8      -1.7257      1.00000
      9      -1.3036      1.00000
     10      -0.8809      1.00000
     11      -0.4807      1.00000
     12       0.2951      1.00000
     13       0.5961      1.00000
     14       1.1306      1.00000
     15       1.8674      1.00000
     16       2.2216      1.00000
     17       2.4863      1.00000
     18       2.6525      1.00000
     19       3.3154      1.00207
     20       4.4181     -0.00004
     21       4.6632     -0.00000
     22       5.5193     -0.00000
     23       5.6462     -0.00000
     24       6.4567     -0.00000

 k-point   4 :       0.5000    0.0000    0.0000
  band No.  band energies     occupation 
      1     -15.2219      1.00000
      2     -15.1333      1.00000
      3     -13.8528      1.00000
      4     -13.8128      1.00000
      5      -3.2191      1.00000
      6      -2.7041      1.00000
      7      -1.9282      1.00000
      8      -1.2701      1.00000
      9      -1.1667      1.00000
     10      -0.9343      1.00000
     11      -0.6337      1.00000
     12      -0.3356      1.00000
     13       0.2994      1.00000
     14       0.9530      1.00000
     15       1.9511      1.00000
     16       2.3401      1.00000
     17       2.3630      1.00000
     18       2.5895      1.00000
     19       3.3559      1.00456
     20       4.5341     -0.00000
     21       4.8773     -0.00000
     22       5.5011     -0.00000
     23       6.0429     -0.00000
     24       6.2874     -0.00000

 k-point   5 :       0.1667    0.1667    0.0000
  band No.  band energies     occupation 
      1     -15.8291      1.00000
      2     -14.3785      1.00000
      3     -13.9025      1.00000
      4     -13.7942      1.00000
      5      -3.7747      1.00000
      6      -2.7803      1.00000
      7      -2.1615      1.00000
      8      -1.9604      1.00000
      9      -1.2904      1.00000
     10      -0.8580      1.00000
     11      -0.0135      1.00000
     12       0.1943      1.00000
     13       1.3814      1.00000
     14       1.5925      1.00000
     15       1.6641      1.00000
     16       1.6667      1.00000
     17       2.6145      1.00000
     18       2.9049      1.00000
     19       3.4797      1.02567
     20       4.0739     -0.03073
     21       4.4279     -0.00003
     22       5.0331     -0.00000
     23       5.6559     -0.00000
     24       6.8314     -0.00000

 k-point   6 :       0.3333    0.1667    0.0000
  band No.  band energies     occupation 
      1     -15.5572      1.00000
      2     -14.6887      1.00000
      3     -13.9210      1.00000
      4     -13.8240      1.00000
      5      -3.5971      1.00000
      6      -2.6172      1.00000
      7      -1.9635      1.00000
      8      -1.6649      1.00000
      9      -1.2705      1.00000
     10      -1.0476      1.00000
     11      -0.0672      1.00000
     12       0.2254      1.00000
     13       0.6907      1.00000
     14       1.2283      1.00000
     15       1.6004      1.00000
     16       1.8064      1.00000
     17       2.5740      1.00000
     18       2.6448      1.00000
     19       3.6157      1.00461
     20       4.2598     -0.00215
     21       4.4888     -0.00000
     22       5.6029     -0.00000
     23       5.6375     -0.00000
     24       6.7192     -0.00000

 k-point   7 :       0.5000    0.1667    0.0000
  band No.  band energies     occupation 
      1     -15.1902      1.00000
      2     -15.0967      1.00000
      3     -13.8984      1.00000
      4     -13.8463      1.00000
      5      -3.3415      1.00000
      6      -2.9185      1.00000
      7      -1.9478      1.00000
      8      -1.3306      1.00000
      9      -1.0713      1.00000
     10      -0.8906      1.00000
     11      -0.2294      1.00000
     12       0.0137      1.00000
     13       0.4749      1.00000
     14       1.0311      1.00000
     15       1.7758      1.00000
     16       1.9312      1.00000
     17       2.2842      1.00000
     18       2.4394      1.00000
     19       3.6224      0.99744
     20       4.3440     -0.00031
     21       4.6438     -0.00000
     22       5.6003     -0.00000
     23       5.9982     -0.00000
     24       6.4600     -0.00000

 k-point   8 :       0.3333    0.3333    0.0000
  band No.  band energies     occupation 
      1     -15.3637      1.00000
      2     -14.7902      1.00000
      3     -14.0044      1.00000
      4     -13.8755      1.00000
      5      -3.6693      1.00000
      6      -2.8830      1.00000
      7      -1.9894      1.00000
      8      -1.3441      1.00000
      9      -1.2964      1.00000
     10      -0.6516      1.00000
     11       0.3617      1.00000
     12       0.4654      1.00000
     13       0.7842      1.00000
     14       1.0087      1.00000
     15       1.2965      1.00000
     16       1.6073      1.00000
     17       2.2988      1.00000
     18       2.4700      1.00000
     19       3.8772      0.16225
     20       4.0703     -0.03144
     21       4.1977     -0.00687
     22       5.7497     -0.00000
     23       5.7977     -0.00000
     24       6.8237     -0.00000

 k-point   9 :       0.5000    0.3333    0.0000
  band No.  band energies     occupation 
      1     -15.1215      1.00000
      2     -15.0143      1.00000
      3     -13.9979      1.00000
      4     -13.9202      1.00000
      5      -3.5666      1.00000
      6      -3.2255      1.00000
      7      -1.9856      1.00000
      8      -1.4315      1.00000
      9      -0.7840      1.00000
     10      -0.5303      1.00000
     11       0.1576      1.00000
     12       0.6403      1.00000
     13       0.8985      1.00000
     14       1.2005      1.00000
     15       1.4506      1.00000
     16       1.5470      1.00000
     17       2.0373      1.00000
     18       2.0493      1.00000
     19       3.8156      0.38631
     20       3.9297      0.03801
     21       4.2508     -0.00258
     22       5.7861     -0.00000
     23       5.9168     -0.00000
     24       6.7160     -0.00000

 k-point  10 :       0.5000    0.5000    0.0000
  band No.  band energies     occupation 
      1     -15.0836      1.00000
      2     -14.9664      1.00000
      3     -14.0535      1.00000
      4     -13.9607      1.00000
      5      -3.6694      1.00000
      6      -3.3472      1.00000
      7      -2.0039      1.00000
      8      -1.4749      1.00000
      9      -0.2994      1.00000
     10      -0.2941      1.00000
     11      -0.1670      1.00000
     12       0.7586      1.00000
     13       1.2743      1.00000
     14       1.3089      1.00000
     15       1.5107      1.00000
     16       1.6697      1.00000
     17       1.7455      1.00000
     18       1.7815      1.00000
     19       3.4050      1.01034
     20       4.0309     -0.03543
     21       4.0687     -0.03172
     22       5.8701     -0.00000
     23       5.8806     -0.00000
     24       6.7554     -0.00000

 k-point  11 :       0.0000    0.0000    0.1111
  band No.  band energies     occupation 
      1     -15.9085      1.00000
      2     -14.1320      1.00000
      3     -13.8707      1.00000
      4     -13.7724      1.00000
      5      -3.8158      1.00000
      6      -3.0373      1.00000
      7      -2.3549      1.00000
      8      -2.0255      1.00000
      9      -1.5996      1.00000
     10      -0.1237      1.00000
     11       0.0769      1.00000
     12       0.0974      1.00000
     13       1.1781      1.00000
     14       1.3196      1.00000
     15       2.1913      1.00000
     16       2.2915      1.00000
     17       2.3038      1.00000
     18       2.9564      1.00000
     19       3.2134      1.00018
     20       3.6194      1.00070
     21       4.3956     -0.00008
     22       5.1213     -0.00000
     23       5.6298     -0.00000
     24       6.6083     -0.00000

 k-point  12 :       0.1667    0.0000    0.1111
  band No.  band energies     occupation 
      1     -15.8065      1.00000
      2     -14.2581      1.00000
      3     -13.8756      1.00000
      4     -13.7952      1.00000
      5      -3.6332      1.00000
      6      -2.9474      1.00000
      7      -2.2518      1.00000
      8      -1.9648      1.00000
      9      -1.5483      1.00000
     10      -0.2920      1.00000
     11      -0.1530      1.00000
     12       0.1170      1.00000
     13       0.8722      1.00000
     14       1.4538      1.00000
     15       1.7492      1.00000
     16       2.1191      1.00000
     17       2.6722      1.00000
     18       2.8585      1.00000
     19       3.1617      1.00004
     20       4.0367     -0.03542
     21       4.4834     -0.00001
     22       5.2823     -0.00000
     23       5.5838     -0.00000
     24       6.4733     -0.00000

 k-point  13 :       0.3333    0.0000    0.1111
  band No.  band energies     occupation 
      1     -15.5168      1.00000
      2     -14.6196      1.00000
      3     -13.8765      1.00000
      4     -13.8218      1.00000
      5      -3.2539      1.00000
      6      -2.7324      1.00000
      7      -2.0779      1.00000
      8      -1.7495      1.00000
      9      -1.3603      1.00000
     10      -0.5823      1.00000
     11      -0.4132      1.00000
     12      -0.1145      1.00000
     13       0.3389      1.00000
     14       0.8936      1.00000
     15       1.8332      1.00000
     16       2.0719      1.00000
     17       2.6863      1.00000
     18       2.8274      1.00000
     19       3.2264      1.00026
     20       4.5221     -0.00000
     21       4.7407     -0.00000
     22       5.4698     -0.00000
     23       5.7254     -0.00000
     24       6.1582     -0.00000

 k-point  14 :       0.5000    0.0000    0.1111
  band No.  band energies     occupation 
      1     -15.1301      1.00000
      2     -15.0467      1.00000
      3     -13.8735      1.00000
      4     -13.8329      1.00000
      5      -3.0562      1.00000
      6      -2.5987      1.00000
      7      -2.0133      1.00000
      8      -1.6340      1.00000
      9      -1.0693      1.00000
     10      -0.5699      1.00000
     11      -0.5683      1.00000
     12      -0.4891      1.00000
     13       0.2701      1.00000
     14       0.2817      1.00000
     15       1.9311      1.00000
     16       2.1579      1.00000
     17       2.6756      1.00000
     18       2.7218      1.00000
     19       3.2938      1.00130
     20       4.7822     -0.00000
     21       4.8411     -0.00000
     22       5.4110     -0.00000
     23       5.9576     -0.00000
     24       6.0197     -0.00000

 k-point  15 :       0.1667    0.1667    0.1111
  band No.  band energies     occupation 
      1     -15.7157      1.00000
      2     -14.3226      1.00000
      3     -13.9212      1.00000
      4     -13.8168      1.00000
      5      -3.6245      1.00000
      6      -2.6675      1.00000
      7      -2.2658      1.00000
      8      -1.7877      1.00000
      9      -1.5570      1.00000
     10      -0.6001      1.00000
     11      -0.2070      1.00000
     12       0.1896      1.00000
     13       0.5930      1.00000
     14       1.6446      1.00000
     15       1.6868      1.00000
     16       2.1245      1.00000
     17       2.4868      1.00000
     18       2.5098      1.00000
     19       3.3001      1.00150
     20       4.4462     -0.00002
     21       4.6364     -0.00000
     22       5.1960     -0.00000
     23       5.5802     -0.00000
     24       6.6143     -0.00000

 k-point  16 :       0.3333    0.1667    0.1111
  band No.  band energies     occupation 
      1     -15.4534      1.00000
      2     -14.6177      1.00000
      3     -13.9380      1.00000
      4     -13.8447      1.00000
      5      -3.4540      1.00000
      6      -2.4976      1.00000
      7      -2.1879      1.00000
      8      -1.6336      1.00000
      9      -1.3784      1.00000
     10      -0.6829      1.00000
     11      -0.2945      1.00000
     12       0.0233      1.00000
     13       0.5385      1.00000
     14       0.9332      1.00000
     15       1.8010      1.00000
     16       1.8898      1.00000
     17       2.4242      1.00000
     18       2.5827      1.00000
     19       3.4843      1.02672
     20       4.4423     -0.00002
     21       4.7515     -0.00000
     22       5.5493     -0.00000
     23       5.6821     -0.00000
     24       6.4734     -0.00000

 k-point  17 :       0.5000    0.1667    0.1111
  band No.  band energies     occupation 
      1     -15.0995      1.00000
      2     -15.0107      1.00000
      3     -13.9170      1.00000
      4     -13.8637      1.00000
      5      -3.1917      1.00000
      6      -2.8137      1.00000
      7      -2.0864      1.00000
      8      -1.7135      1.00000
      9      -0.9369      1.00000
     10      -0.5046      1.00000
     11      -0.1903      1.00000
     12      -0.0642      1.00000
     13       0.3081      1.00000
     14       0.4309      1.00000
     15       1.7243      1.00000
     16       1.9295      1.00000
     17       2.4347      1.00000
     18       2.5890      1.00000
     19       3.5576      1.03462
     20       4.4655     -0.00001
     21       4.7293     -0.00000
     22       5.5173     -0.00000
     23       6.0212     -0.00000
     24       6.1644     -0.00000

 k-point  18 :       0.3333    0.3333    0.1111
  band No.  band energies     occupation 
      1     -15.2667      1.00000
      2     -14.7117      1.00000
      3     -14.0189      1.00000
      4     -13.8920      1.00000
      5      -3.5372      1.00000
      6      -2.7731      1.00000
      7      -2.2238      1.00000
      8      -1.7097      1.00000
      9      -1.0059      1.00000
     10      -0.2548      1.00000
     11      -0.0704      1.00000
     12       0.4652      1.00000
     13       0.4906      1.00000
     14       0.9509      1.00000
     15       1.3440      1.00000
     16       1.9266      1.00000
     17       1.9629      1.00000
     18       2.3511      1.00000
     19       3.7251      0.75377
     20       4.3650     -0.00018
     21       4.4269     -0.00003
     22       5.6574     -0.00000
     23       5.8818     -0.00000
     24       6.6138     -0.00000

 k-point  19 :       0.5000    0.3333    0.1111
  band No.  band energies     occupation 
      1     -15.0326      1.00000
      2     -14.9290      1.00000
      3     -14.0121      1.00000
      4     -13.9321      1.00000
      5      -3.4363      1.00000
      6      -3.1217      1.00000
      7      -2.1813      1.00000
      8      -1.8328      1.00000
      9      -0.5741      1.00000
     10      -0.1029      1.00000
     11       0.2950      1.00000
     12       0.4334      1.00000
     13       0.6051      1.00000
     14       0.7313      1.00000
     15       1.3071      1.00000
     16       1.4586      1.00000
     17       2.1715      1.00000
     18       2.2991      1.00000
     19       3.8271      0.33982
     20       3.9566      0.00026
     21       4.4131     -0.00005
     22       5.6917     -0.00000
     23       6.0279     -0.00000
     24       6.4634     -0.00000

 k-point  20 :       0.5000    0.5000    0.1111
  band No.  band energies     occupation 
      1     -14.9958      1.00000
      2     -14.8812      1.00000
      3     -14.0662      1.00000
      4     -13.9701      1.00000
      5      -3.5462      1.00000
      6      -3.2442      1.00000
      7      -2.2162      1.00000
      8      -1.8800      1.00000
      9      -0.2109      1.00000
     10       0.2332      1.00000
     11       0.2379      1.00000
     12       0.4754      1.00000
     13       0.8198      1.00000
     14       0.8463      1.00000
     15       1.1796      1.00000
     16       1.4375      1.00000
     17       1.9569      1.00000
     18       2.1870      1.00000
     19       3.6144      1.00589
     20       3.9389      0.02327
     21       4.2584     -0.00221
     22       5.7610     -0.00000
     23       6.0295     -0.00000
     24       6.6087     -0.00000

 k-point  21 :       0.0000    0.0000    0.2222
  band No.  band energies     occupation 
      1     -15.5737      1.00000
      2     -14.0617      1.00000
      3     -13.9249      1.00000
      4     -13.8184      1.00000
      5      -3.3581      1.00000
      6      -2.7681      1.00000
      7      -2.0732      1.00000
      8      -1.9298      1.00000
      9      -1.8487      1.00000
     10      -1.0440      1.00000
     11       0.1884      1.00000
     12       0.5139      1.00000
     13       0.5528      1.00000
     14       0.7511      1.00000
     15       1.4194      1.00000
     16       2.2141      1.00000
     17       2.2621      1.00000
     18       2.8625      1.00000
     19       3.3535      1.00437
     20       3.9158      0.06418
     21       4.9039     -0.00000
     22       5.4426     -0.00000
     23       5.5399     -0.00000
     24       6.1810     -0.00000

 k-point  22 :       0.1667    0.0000    0.2222
  band No.  band energies     occupation 
      1     -15.4827      1.00000
      2     -14.1523      1.00000
      3     -13.9337      1.00000
      4     -13.8462      1.00000
      5      -3.2074      1.00000
      6      -2.6671      1.00000
      7      -2.1809      1.00000
      8      -1.9655      1.00000
      9      -1.5100      1.00000
     10      -1.0902      1.00000
     11      -0.2263      1.00000
     12       0.3743      1.00000
     13       0.4045      1.00000
     14       0.9059      1.00000
     15       1.2837      1.00000
     16       2.2644      1.00000
     17       2.5220      1.00000
     18       2.7507      1.00000
     19       3.2293      1.00028
     20       4.2341     -0.00358
     21       4.8602     -0.00000
     22       5.3950     -0.00000
     23       5.6606     -0.00000
     24       5.9949     -0.00000

 k-point  23 :       0.3333    0.0000    0.2222
  band No.  band energies     occupation 
      1     -15.2259      1.00000
      2     -14.4492      1.00000
      3     -13.9336      1.00000
      4     -13.8765      1.00000
      5      -2.8540      1.00000
      6      -2.4560      1.00000
      7      -2.1553      1.00000
      8      -1.9865      1.00000
      9      -1.1910      1.00000
     10      -1.0011      1.00000
     11      -0.7646      1.00000
     12      -0.0824      1.00000
     13       0.0046      1.00000
     14       0.9367      1.00000
     15       1.3996      1.00000
     16       2.0584      1.00000
     17       2.6763      1.00000
     18       2.9339      1.00000
     19       3.1383      1.00002
     20       4.6299     -0.00000
     21       4.9617     -0.00000
     22       5.2946     -0.00000
     23       5.5559     -0.00000
     24       5.8322     -0.00000

 k-point  24 :       0.5000    0.0000    0.2222
  band No.  band energies     occupation 
      1     -14.8844      1.00000
      2     -14.8178      1.00000
      3     -13.9279      1.00000
      4     -13.8896      1.00000
      5      -2.6234      1.00000
      6      -2.4088      1.00000
      7      -2.0366      1.00000
      8      -1.8904      1.00000
[...]
      4     -13.8205      1.00000
      5      -2.6685      1.00000
      6      -2.5311      1.00000
      7      -2.4652      1.00000
      8      -2.3709      1.00000
      9      -1.2057      1.00000
     10      -0.7298      1.00000
     11       0.0389      1.00000
     12       0.2469      1.00000
     13       0.5414      1.00000
     14       1.2909      1.00000
     15       1.9387      1.00000
     16       2.0811      1.00000
     17       2.5229      1.00000
     18       3.1061      1.00000
     19       3.6321      1.00105
     20       4.8727     -0.00000
     21       5.3115     -0.00000
     22       5.4693     -0.00000
     23       5.9781     -0.00000
     24       6.4233     -0.00000

 k-point  40 :       0.5000    0.5000    0.3333
  band No.  band energies     occupation 
      1     -14.2943      1.00000
      2     -14.2005      1.00000
      3     -13.9496      1.00000
      4     -13.8403      1.00000
      5      -2.7878      1.00000
      6      -2.6446      1.00000
      7      -2.5614      1.00000
      8      -2.4156      1.00000
      9      -1.1430      1.00000
     10      -0.6426      1.00000
     11       0.0795      1.00000
     12       0.2764      1.00000
     13       0.6063      1.00000
     14       1.5801      1.00000
     15       1.8892      1.00000
     16       2.0627      1.00000
     17       2.4363      1.00000
     18       3.2012      1.00000
     19       3.7148      1.00554
     20       4.7963     -0.00002
     21       5.3001     -0.00000
     22       5.3950     -0.00000
     23       6.2216     -0.00000
     24       6.6058     -0.00000

 k-point  41 :       0.0000    0.0000    0.4444
  band No.  band energies     occupation 
      1     -14.4346      1.00000
      2     -14.0304      1.00000
      3     -13.8305      1.00000
      4     -13.7129      1.00000
      5      -2.4633      1.00000
      6      -2.1202      1.00000
      7      -1.6879      1.00000
      8      -1.6432      1.00000
      9      -1.2574      1.00000
     10      -1.2411      1.00000
     11      -0.3865      1.00000
     12      -0.2865      1.00000
     13      -0.0762      1.00000
     14       0.8901      1.00000
     15       1.1477      1.00000
     16       1.4807      1.00000
     17       2.3317      1.00000
     18       3.3697      1.00000
     19       4.1820      0.31304
     20       5.0736     -0.00000
     21       5.3827     -0.00000
     22       5.7751     -0.00000
     23       5.9567     -0.00000
     24       6.1728     -0.00000

 k-point  42 :       0.1667    0.0000    0.4444
  band No.  band energies     occupation 
      1     -14.3925      1.00000
      2     -14.0185      1.00000
      3     -13.8549      1.00000
      4     -13.7391      1.00000
      5      -2.4226      1.00000
      6      -2.2246      1.00000
      7      -2.0565      1.00000
      8      -1.8546      1.00000
      9      -1.1490      1.00000
     10      -0.9286      1.00000
     11      -0.3974      1.00000
     12      -0.0702      1.00000
     13       0.1282      1.00000
     14       1.0185      1.00000
     15       1.1106      1.00000
     16       1.4202      1.00000
     17       2.3459      1.00000
     18       3.2761      1.00000
     19       3.9918      0.96792
     20       5.0836     -0.00000
     21       5.4157     -0.00000
     22       5.5981     -0.00000
     23       5.6848     -0.00000
     24       6.1727     -0.00000

 k-point  43 :       0.3333    0.0000    0.4444
  band No.  band energies     occupation 
      1     -14.2798      1.00000
      2     -14.0161      1.00000
      3     -13.9053      1.00000
      4     -13.7978      1.00000
      5      -2.6821      1.00000
      6      -2.5313      1.00000
      7      -2.0026      1.00000
      8      -1.7995      1.00000
      9      -1.2297      1.00000
     10      -0.7187      1.00000
     11      -0.4376      1.00000
     12       0.1325      1.00000
     13       0.4984      1.00000
     14       0.7570      1.00000
     15       1.4166      1.00000
     16       1.8950      1.00000
     17       2.3793      1.00000
     18       2.9223      1.00000
     19       3.5054      1.00004
     20       5.0189     -0.00000
     21       5.3200     -0.00000
     22       5.4771     -0.00000
     23       5.4955     -0.00000
     24       6.1093     -0.00000

 k-point  44 :       0.5000    0.0000    0.4444
  band No.  band energies     occupation 
      1     -14.1567      1.00000
      2     -14.1019      1.00000
      3     -13.8965      1.00000
      4     -13.8413      1.00000
      5      -2.8095      1.00000
      6      -2.7072      1.00000
      7      -1.7880      1.00000
      8      -1.7654      1.00000
      9      -1.1761      1.00000
     10      -1.0246      1.00000
     11      -0.0399      1.00000
     12       0.0109      1.00000
     13       0.4433      1.00000
     14       0.6134      1.00000
     15       2.1188      1.00000
     16       2.2424      1.00000
     17       2.3256      1.00000
     18       2.5809      1.00000
     19       3.0502      1.00000
     20       4.9077     -0.00000
     21       5.3414     -0.00000
     22       5.3859     -0.00000
     23       5.5127     -0.00000
     24       6.0566     -0.00000

 k-point  45 :       0.1667    0.1667    0.4444
  band No.  band energies     occupation 
      1     -14.3528      1.00000
      2     -14.0157      1.00000
      3     -13.8790      1.00000
      4     -13.7508      1.00000
      5      -2.5366      1.00000
      6      -2.2701      1.00000
      7      -2.0561      1.00000
      8      -1.8681      1.00000
      9      -1.6882      1.00000
     10      -0.5773      1.00000
     11      -0.0862      1.00000
     12       0.0231      1.00000
     13       0.0873      1.00000
     14       1.1559      1.00000
     15       1.2007      1.00000
     16       1.4628      1.00000
     17       2.3770      1.00000
     18       3.2989      1.00000
     19       3.7639      1.01213
     20       4.9468     -0.00000
     21       5.3132     -0.00000
     22       5.5045     -0.00000
     23       5.6142     -0.00000
     24       6.3489     -0.00000

 k-point  46 :       0.3333    0.1667    0.4444
  band No.  band energies     occupation 
      1     -14.2476      1.00000
      2     -14.0247      1.00000
      3     -13.9155      1.00000
      4     -13.7984      1.00000
      5      -2.7157      1.00000
      6      -2.5224      1.00000
      7      -2.2160      1.00000
      8      -1.8417      1.00000
      9      -1.5348      1.00000
     10      -0.4925      1.00000
     11      -0.3381      1.00000
     12       0.0422      1.00000
     13       0.3888      1.00000
     14       1.1620      1.00000
     15       1.5335      1.00000
     16       2.0646      1.00000
     17       2.3970      1.00000
     18       3.0068      1.00000
     19       3.4374      1.00000
     20       4.8786     -0.00000
     21       5.2604     -0.00000
     22       5.4989     -0.00000
     23       5.5357     -0.00000
     24       6.2590     -0.00000

 k-point  47 :       0.5000    0.1667    0.4444
  band No.  band energies     occupation 
      1     -14.1419      1.00000
      2     -14.0860      1.00000
      3     -13.9079      1.00000
      4     -13.8453      1.00000
      5      -2.8236      1.00000
      6      -2.6994      1.00000
      7      -1.9996      1.00000
      8      -1.9523      1.00000
      9      -1.1946      1.00000
     10      -0.9753      1.00000
     11      -0.2173      1.00000
     12      -0.1036      1.00000
     13       0.6355      1.00000
     14       0.9694      1.00000
     15       2.1570      1.00000
     16       2.2278      1.00000
     17       2.3749      1.00000
     18       2.7719      1.00000
     19       3.1589      1.00000
     20       5.0413     -0.00000
     21       5.3535     -0.00000
     22       5.4229     -0.00000
     23       5.5347     -0.00000
     24       6.0274     -0.00000

 k-point  48 :       0.3333    0.3333    0.4444
  band No.  band energies     occupation 
      1     -14.1671      1.00000
      2     -14.0390      1.00000
      3     -13.9308      1.00000
      4     -13.8250      1.00000
      5      -2.7969      1.00000
      6      -2.5095      1.00000
      7      -2.3963      1.00000
      8      -2.2536      1.00000
      9      -1.3500      1.00000
     10      -0.7579      1.00000
     11      -0.3473      1.00000
     12      -0.0714      1.00000
     13       0.6533      1.00000
     14       1.4372      1.00000
     15       1.9370      1.00000
     16       2.3767      1.00000
     17       2.4157      1.00000
     18       2.9368      1.00000
     19       3.5026      1.00004
     20       5.0268     -0.00000
     21       5.3219     -0.00000
     22       5.3739     -0.00000
     23       5.5008     -0.00000
     24       6.4649     -0.00000

 k-point  49 :       0.5000    0.3333    0.4444
  band No.  band energies     occupation 
      1     -14.1098      1.00000
      2     -14.0455      1.00000
      3     -13.9403      1.00000
      4     -13.8552      1.00000
      5      -2.8098      1.00000
      6      -2.6993      1.00000
      7      -2.3664      1.00000
      8      -2.2298      1.00000
      9      -1.3365      1.00000
     10      -0.9288      1.00000
     11      -0.4320      1.00000
     12      -0.0926      1.00000
     13       0.8366      1.00000
     14       1.5084      1.00000
     15       2.1253      1.00000
     16       2.3197      1.00000
     17       2.4138      1.00000
     18       3.1893      1.00000
     19       3.4101      1.00000
     20       5.1416     -0.00000
     21       5.2119     -0.00000
     22       5.5535     -0.00000
     23       5.7685     -0.00000
     24       6.1441     -0.00000

 k-point  50 :       0.5000    0.5000    0.4444
  band No.  band energies     occupation 
      1     -14.0922      1.00000
      2     -14.0049      1.00000
      3     -13.9771      1.00000
      4     -13.8614      1.00000
      5      -2.7236      1.00000
      6      -2.6763      1.00000
      7      -2.6555      1.00000
      8      -2.3110      1.00000
      9      -1.4436      1.00000
     10      -0.8842      1.00000
     11      -0.5293      1.00000
     12      -0.0574      1.00000
     13       0.9012      1.00000
     14       1.8059      1.00000
     15       2.0436      1.00000
     16       2.3217      1.00000
     17       2.4864      1.00000
     18       3.4588      1.00001
     19       3.5043      1.00004
     20       5.0724     -0.00000
     21       5.1759     -0.00000
     22       5.5139     -0.00000
     23       6.0483     -0.00000
     24       6.3502     -0.00000


--------------------------------------------------------------------------------------------------------


 soft charge-density along one line, spin component           1
         0         1         2         3         4         5         6         7         8         9
 total charge-density along one line
 
 soft charge-density along one line, spin component           2
         0         1         2         3         4         5         6         7         8         9
 total charge-density along one line
 
 pseudopotential strength for first ion, spin component:           1
 12.348 -15.041  -0.010  -0.000  -0.010   0.012   0.000   0.012
-15.041  18.342   0.013   0.000   0.013  -0.016  -0.000  -0.016
 -0.010   0.013  -8.600   0.000  -0.061  10.357  -0.000   0.083
 -0.000   0.000   0.000  -8.652  -0.000  -0.000  10.428   0.000
 -0.010   0.013  -0.061  -0.000  -8.600   0.083   0.000  10.357
  0.012  -0.016  10.357  -0.000   0.083 -12.325   0.000  -0.112
  0.000  -0.000  -0.000  10.428   0.000   0.000 -12.424  -0.000
  0.012  -0.016   0.083   0.000  10.357  -0.112  -0.000 -12.325
 pseudopotential strength for first ion, spin component:           2
 12.377 -15.078  -0.006  -0.000  -0.006   0.008   0.000   0.008
-15.078  18.389   0.008   0.000   0.008  -0.010  -0.000  -0.010
 -0.006   0.008  -8.647   0.000  -0.052  10.423  -0.000   0.069
 -0.000   0.000   0.000  -8.639  -0.000  -0.000  10.410   0.000
 -0.006   0.008  -0.052  -0.000  -8.647   0.069   0.000  10.423
  0.008  -0.010  10.423  -0.000   0.069 -12.418   0.000  -0.093
  0.000  -0.000  -0.000  10.410   0.000   0.000 -12.399  -0.000
  0.008  -0.010   0.069   0.000  10.423  -0.093  -0.000 -12.418
 total augmentation occupancy for first ion, spin component:           1
  2.565   0.332   0.029   0.000   0.029   0.011   0.000   0.011
  0.332   0.066   0.026   0.000   0.026   0.005   0.000   0.005
  0.029   0.026   2.018   0.000   0.040   0.208   0.000   0.061
  0.000  -0.000   0.000   2.022   0.000   0.000   0.231   0.000
  0.029   0.026   0.040   0.000   2.018   0.061   0.000   0.208
  0.011   0.005   0.208   0.000   0.061   0.029   0.000   0.011
  0.000   0.000   0.000   0.231   0.000   0.000   0.031   0.000
  0.011   0.005   0.061   0.000   0.208   0.011   0.000   0.029
 total augmentation occupancy for first ion, spin component:           2
  0.006   0.003   0.003   0.000   0.003  -0.001   0.000  -0.001
  0.003  -0.001  -0.009   0.000  -0.009  -0.002   0.000  -0.002
  0.003  -0.009  -0.036   0.000   0.012   0.007   0.000  -0.002
  0.000   0.000   0.000   0.039   0.000   0.000  -0.002   0.000
  0.003  -0.009   0.012   0.000  -0.036  -0.002   0.000   0.007
 -0.001  -0.002   0.007   0.000  -0.002   0.000   0.000   0.000
  0.000   0.000   0.000  -0.002   0.000   0.000  -0.001   0.000
 -0.001  -0.002  -0.002   0.000   0.007   0.000   0.000   0.000


------------------------ aborting loop because EDIFF is reached ----------------------------------------


    CHARGE:  cpu time    0.02: real time    0.02
    FORLOC:  cpu time    0.00: real time    0.00
    FORNL :  cpu time    0.06: real time    0.06
    STRESS:  cpu time    0.14: real time    0.14
    FORCOR:  cpu time    0.01: real time    0.01
    FORHAR:  cpu time    0.00: real time    0.00
    MIXING:  cpu time    0.00: real time    0.00

  FORCE on cell =-STRESS in cart. coord.  units (eV):
  Direction    XX          YY          ZZ          XY          YZ          ZX
  --------------------------------------------------------------------------------------
  Alpha Z   174.68625   174.68625   174.68625
  Ewald    -830.66329  -830.66329  -581.54861     0.00000     0.00000     0.00000
  Hartree   147.28753   147.28753   252.46477    -0.00000    -0.00000    -0.00000
  E(xc)    -184.57293  -184.57293  -184.82054    -0.00000     0.00000     0.00000
  Local      73.63476    73.63476  -262.00827     0.00000    -0.00000     0.00000
  n-local  -133.31144  -133.09227  -129.17216     0.23653    -0.33769     0.08908
  augment    87.62363    87.62363    84.93057    -0.00000    -0.00000     0.00000
  Kinetic   666.26472   664.33725   645.27343    -1.47038    -0.05568    -0.96147
  Fock        0.00000     0.00000     0.00000     0.00000     0.00000     0.00000
  -------------------------------------------------------------------------------------
  Total       0.09508     0.09508    -0.19455     0.00000     0.00000     0.00000
  in kB       2.79686     2.79686    -5.72318     0.00000     0.00000     0.00000
  external pressure =       -0.04 kB  Pullay stress =        0.00 kB


 VOLUME and BASIS-vectors are now :
 -----------------------------------------------------------------------------
  energy-cutoff  :      520.00
  volume of cell :       54.46
      direct lattice vectors                 reciprocal lattice vectors
     4.378352048 -0.000000000  0.000000000     0.228396435 -0.000000000  0.000000000
     0.000000000  4.378352048  0.000000000     0.000000000  0.228396435  0.000000000
     0.000000000  0.000000000  2.841113926     0.000000000  0.000000000  0.351974622

  length of vectors
     4.378352048  4.378352048  2.841113926     0.228396435  0.228396435  0.351974622


 FORCES acting on ions
    electron-ion (+dipol)            ewald-force                    non-local-force                 convergence-correction
 -----------------------------------------------------------------------------------------------
   0.265E+02 0.265E+02 -.866E-06   -.296E+02 -.296E+02 -.623E-14   0.311E+01 0.311E+01 -.465E-17   -.324E-01 -.324E-01 -.342E-12
   0.265E+02 -.265E+02 0.824E-11   -.296E+02 0.296E+02 -.738E-14   0.311E+01 -.311E+01 -.491E-17   -.324E-01 0.324E-01 -.144E-11
   -.265E+02 0.265E+02 0.915E-12   0.296E+02 -.296E+02 -.769E-14   -.311E+01 0.311E+01 -.910E-17   0.324E-01 -.324E-01 -.893E-13
   -.265E+02 -.265E+02 0.866E-06   0.296E+02 0.296E+02 -.947E-14   -.311E+01 -.311E+01 0.706E-17   0.324E-01 0.324E-01 -.333E-12
   0.234E-13 0.148E-13 0.317E-13   -.448E-13 0.117E-13 0.115E-13   -.320E-22 0.424E-22 0.303E-23   0.264E-13 0.105E-12 0.393E-12
   0.531E-12 0.111E-11 0.260E-12   -.690E-13 -.827E-13 0.122E-13   0.150E-22 0.588E-22 -.475E-23   0.891E-13 -.510E-14 0.185E-12
 -----------------------------------------------------------------------------------------------
   0.242E-11 0.172E-11 0.622E-11   -.157E-15 0.142E-13 -.710E-14   -.888E-15 0.101E-21 -.116E-16   -.841E-13 -.889E-12 -.163E-11
 
 
 POSITION                                       TOTAL-FORCE (eV/Angst)
 -----------------------------------------------------------------------------------
      1.32826      1.32826      0.00000         0.005705      0.005705      0.000000
      3.51744      0.86091      1.42056         0.005705     -0.005705      0.000000
      0.86091      3.51744      1.42056        -0.005705      0.005705      0.000000
      3.05009      3.05009     -0.00000        -0.005705     -0.005705      0.000000
      0.00000     -0.00000     -0.00000        -0.000000      0.000000     -0.000000
      2.18918      2.18918      1.42056         0.000000      0.000000     -0.000000
 -----------------------------------------------------------------------------------
    total drift:                                0.000000      0.000000      0.000000


--------------------------------------------------------------------------------------------------------



  FREE ENERGIE OF THE ION-ELECTRON SYSTEM (eV)
  ---------------------------------------------------
  free  energy   TOTEN  =       -50.37002101 eV

  energy  without entropy=      -50.37439591  energy(sigma->0) =      -50.37147931
 
 d Force = 0.5954342E-04[ 0.263E-04, 0.928E-04]  d Energy = 0.5051695E-04 0.903E-05
 d Force =-0.1356696E+00[-0.136E+00,-0.135E+00]  d Ewald  =-0.2878040E+00 0.152E+00


--------------------------------------------------------------------------------------------------------


    POTLOK:  cpu time    0.01: real time    0.01


--------------------------------------------------------------------------------------------------------




--------------------------------------------------------------------------------------------------------


  
 reached required accuracy - stopping structural energy minimisation
     LOOP+:  cpu time    1.71: real time    2.32
    4ORBIT:  cpu time    0.00: real time    0.00

 total amount of memory used by VASP on root node    38564. kBytes
========================================================================

   base      :      30000. kBytes
   nonl-proj :       5682. kBytes
   fftplans  :        227. kBytes
   grid      :        558. kBytes
   one-center:         62. kBytes
   wavefun   :       2035. kBytes
 
  
  
 General timing and accounting informations for this job:
 ========================================================
  
                  Total CPU time used (sec):       31.894
                            User time (sec):       31.587
                          System time (sec):        0.307
                         Elapsed time (sec):       38.785
  
                   Maximum memory used (kb):       81632.
                   Average memory used (kb):           0.
  
                          Minor page faults:        13357
                          Major page faults:          157
                 Voluntary context switches:         4254
