 vasp.5.3.3 18Dez12 (build May 12 2016 12:04:25) complex                        
  
 executed on             LinuxIFC date 2017.03.09  13:08:11
 running on   96 total cores
 distrk:  each k-point on   96 cores,    1 groups
 distr:  one band on NCORES_PER_BAND=  12 cores,    8 groups


--------------------------------------------------------------------------------------------------------


 INCAR:
 POTCAR:    PAW_PBE Mn 06Sep2000                  
 POTCAR:    PAW_PBE O 08Apr2002                   
 POTCAR:    PAW_PBE Li 17Jan2003                  
 POTCAR:    PAW_PBE Mn 06Sep2000                  
  local pseudopotential read in
  partial core-charges read in
  partial kinetic energy density read in
  atomic valenz-charges read in
  non local Contribution for L=           2  read in
    real space projection operators read in
  non local Contribution for L=           2  read in
    real space projection operators read in
  non local Contribution for L=           0  read in
    real space projection operators read in
  non local Contribution for L=           0  read in
    real space projection operators read in
  non local Contribution for L=           1  read in
    real space projection operators read in
  non local Contribution for L=           1  read in
    real space projection operators read in
    PAW grid and wavefunctions read in
 
   number of l-projection  operators is LMAX  =           6
   number of lm-projection operators is LMMAX =          18
 
 POTCAR:    PAW_PBE O 08Apr2002                   
  local pseudopotential read in
  partial core-charges read in
  partial kinetic energy density read in
  kinetic energy density of atom read in
  atomic valenz-charges read in
  non local Contribution for L=           0  read in
    real space projection operators read in
  non local Contribution for L=           0  read in
    real space projection operators read in
  non local Contribution for L=           1  read in
    real space projection operators read in
  non local Contribution for L=           1  read in
    real space projection operators read in
    PAW grid and wavefunctions read in
 
   number of l-projection  operators is LMAX  =           4
   number of lm-projection operators is LMMAX =           8
 
 POTCAR:    PAW_PBE Li 17Jan2003                  
  local pseudopotential read in
  partial core-charges read in
  partial kinetic energy density read in
  atomic valenz-charges read in
  non local Contribution for L=           0  read in
    real space projection operators read in
  non local Contribution for L=           0  read in
    real space projection operators read in
  non local Contribution for L=           1  read in
    real space projection operators read in
    PAW grid and wavefunctions read in
 
   number of l-projection  operators is LMAX  =           3
   number of lm-projection operators is LMMAX =           5
 

 ----------------------------------------------------------------------------- 
|                                                                             |
|  ADVICE TO THIS USER RUNNING 'VASP/VAMP'   (HEAR YOUR MASTER'S VOICE ...):  |
|                                                                             |
|      You have a (more or less) 'large supercell' and for larger cells       |
|      it might be more efficient to use real space projection opertators     |
|      So try LREAL= Auto  in the INCAR   file.                               |
|      Mind: At the moment your POTCAR file does not contain real space       |
|       projectors, and has to be modified,  BUT if you                       |
|      want to do an extremely  accurate calculation you might also keep the  |
|      reciprocal projection scheme          (i.e. LREAL=.FALSE.)             |
|                                                                             |
 ----------------------------------------------------------------------------- 

  PAW_PBE Mn 06Sep2000                  :
 energy of atom  1       EATOM= -416.7541
 kinetic energy error for atom=    0.0024 (will be added to EATOM!!)
  PAW_PBE O 08Apr2002                   :
 energy of atom  2       EATOM= -432.3788
 kinetic energy error for atom=    0.0208 (will be added to EATOM!!)
  PAW_PBE Li 17Jan2003                  :
 energy of atom  3       EATOM=   -5.3001
 kinetic energy error for atom=    0.0000 (will be added to EATOM!!)
 
 
 POSCAR:                                         
  positions in direct lattice
  velocities in cartesian coordinates
 exchange correlation table for  LEXCH =        8
   RHO(1)=    0.500       N(1)  =     2000
   RHO(2)=  100.500       N(2)  =     4000
 


--------------------------------------------------------------------------------------------------------


 ion  position               nearest neighbor table
   1  0.250  0.151  0.659-  13 1.91  24 1.91  24 1.91  34 1.95  34 1.95  30 2.04  37 2.71  40 2.84
                            40 2.84   9 3.15   9 3.15
   2  0.250  0.119  0.322-  22 1.88  22 1.88  14 1.91  28 1.97  35 1.99  35 1.99  38 2.75   7 2.98
                             7 2.98  41 3.03  41 3.03  37 3.17
   3  0.250  0.116  0.990-  36 1.90  36 1.90  23 1.95  23 1.95  15 1.96  29 2.00  38 2.76   8 3.12
                             8 3.12
   4  0.250  0.661  0.512-  31 1.92  31 1.92  19 1.98  19 1.98  16 2.12  39 2.66
   5  0.250  0.621  0.176-  20 1.92  20 1.92  32 1.98  32 1.98  17 2.33  26 2.34  39 2.55  42 2.88
                            42 2.88
   6  0.250  0.635  0.843-  33 1.91  33 1.91  21 1.93  21 1.93  18 1.95  27 2.06  43 2.91  43 2.91
                            12 3.16  12 3.16
   7  0.750  0.860  0.339-  17 1.91  17 1.91  19 1.93  28 1.96  28 1.96  35 2.00   2 2.98   2 2.98
                            39 2.99  39 2.99
   8  0.750  0.842  0.992-  18 1.94  18 1.94  29 1.98  29 1.98  20 2.22  36 2.26   3 3.12   3 3.12
                            42 3.18
   9  0.750  0.872  0.671-  16 1.92  16 1.92  30 2.00  30 2.00  21 2.20  34 2.31  40 2.73  37 2.92
                            37 2.92   1 3.15   1 3.15
  10  0.750  0.373  0.507-  13 1.92  13 1.92  25 1.96  25 1.96  31 2.24  41 2.65
  11  0.750  0.325  0.153-  26 1.93  26 1.93  14 1.96  14 1.96  23 2.13  42 2.69  41 2.81
  12  0.750  0.357  0.842-  15 1.92  15 1.92  27 2.00  27 2.00  33 2.27  24 2.35  43 2.78   6 3.16
                             6 3.16
  13  0.250  0.307  0.580-   1 1.91  10 1.92  10 1.92
  14  0.250  0.263  0.233-   2 1.91  11 1.96  11 1.96  41 2.45  41 2.45
  15  0.250  0.278  0.910-  12 1.92  12 1.92   3 1.96
  16  0.250  0.822  0.596-   9 1.92   9 1.92  37 2.03   4 2.12
  17  0.250  0.786  0.277-   7 1.91   7 1.91  39 2.08   5 2.33
  18  0.250  0.783  0.919-   8 1.94   8 1.94   6 1.95
  19  0.750  0.713  0.427-   7 1.93   4 1.98   4 1.98  39 2.27  39 2.27
  20  0.750  0.681  0.100-   5 1.92   5 1.92  42 1.96   8 2.22
  21  0.750  0.698  0.767-   6 1.93   6 1.93  43 2.03   9 2.20
  22  0.750  0.192  0.382-   2 1.88   2 1.88  41 2.01
  23  0.750  0.167  0.066-   3 1.95   3 1.95  11 2.13  38 2.54  38 2.54
  24  0.750  0.205  0.731-   1 1.91   1 1.91  40 1.97  12 2.35
  25  0.250  0.436  0.428-  10 1.96  10 1.96  39 2.01  41 2.15  41 2.15
  26  0.250  0.427  0.099-  11 1.93  11 1.93  42 2.03  42 2.03   5 2.34
  27  0.250  0.461  0.779-  12 2.00  12 2.00  43 2.04  43 2.04   6 2.06
  28  0.250  0.953  0.397-  37 1.92   7 1.96   7 1.96   2 1.97
  29  0.250  0.935  0.052-  38 1.85   8 1.98   8 1.98   3 2.00
  30  0.250  0.972  0.729-  40 2.00  40 2.00   9 2.00   9 2.00   1 2.04
  31  0.750  0.567  0.571-  43 1.88   4 1.92   4 1.92  10 2.24
  32  0.750  0.543  0.251-  41 1.97   5 1.98   5 1.98  39 2.12  39 2.12
  33  0.750  0.552  0.908-  42 1.82   6 1.91   6 1.91  12 2.27
  34  0.750  0.076  0.591-   1 1.95   1 1.95  37 2.02  37 2.02   9 2.31
  35  0.750  0.026  0.260-   2 1.99   2 1.99   7 2.00  38 2.09  38 2.09
  36  0.750  0.049  0.925-  40 1.81   3 1.90   3 1.90   8 2.26
  37  0.250  0.995  0.519-  28 1.92  34 2.02  34 2.02  16 2.03   1 2.71   9 2.92   9 2.92   2 3.17

  38  0.250  0.007  0.162-  29 1.85  35 2.09  35 2.09  23 2.54  23 2.54   2 2.75   3 2.76
  39  0.250  0.600  0.344-  25 2.01  17 2.08  32 2.12  32 2.12  19 2.27  19 2.27   5 2.55  41 2.65
                            41 2.65   4 2.66   7 2.99   7 2.99
  40  0.750  0.038  0.806-  36 1.81  24 1.97  30 2.00  30 2.00   9 2.73   1 2.84   1 2.84
  41  0.750  0.381  0.332-  32 1.97  22 2.01  25 2.15  25 2.15  14 2.45  14 2.45  39 2.65  39 2.65
                            10 2.65  11 2.81   2 3.03   2 3.03
  42  0.750  0.527  0.028-  33 1.82  20 1.96  26 2.03  26 2.03  11 2.69   5 2.88   5 2.88   8 3.18

  43  0.750  0.536  0.695-  31 1.88  21 2.03  27 2.04  27 2.04  12 2.78   6 2.91   6 2.91
 
  LATTYP: Found a simple monoclinic cell.
 ALAT       =    18.7447297150
 B/A-ratio  =     0.1544160424
 C/A-ratio  =     1.3869059749
 COS(beta)  =    -0.9498265739
  
  Lattice vectors:
  
 A1 = ( -10.5720481508,   0.0000000000,  15.4789111369)
 A2 = (   0.0000000000,  -2.8944869791,   0.0000000000)
 A3 = (  20.6414053223,   0.0000000000, -15.8046079205)


Analysis of symmetry for initial positions (statically):
=====================================================================
 Subroutine PRICEL returns:
 Original cell was already a primitive cell.
 

 Routine SETGRP: Setting up the symmetry group for a 
 simple monoclinic supercell.


 Subroutine GETGRP returns: Found  2 space group operations
 (whereof  1 operations were pure point group operations)
 out of a pool of  4 trial point group operations.


The static configuration has the point symmetry C_1 .
 The point group associated with its full space group is C_1h.


Analysis of symmetry for dynamics (positions and initial velocities):
=====================================================================
 Subroutine PRICEL returns:
 Original cell was already a primitive cell.
 

 Routine SETGRP: Setting up the symmetry group for a 
 simple monoclinic supercell.


 Subroutine GETGRP returns: Found  2 space group operations
 (whereof  1 operations were pure point group operations)
 out of a pool of  4 trial point group operations.


The dynamic configuration has the point symmetry C_1 .
 The point group associated with its full space group is C_1h.


Analysis of magnetic symmetry:
=====================================================================

 Subroutine MAGSYM returns: Found  2 space group operations
 (whereof  1 operations were pure point group operations)
 out of a pool of  2 trial space group operations
 (whereof  1 operations were pure point group operations)
 and found also     1 'primitive' translations


The magnetic configuration has the point symmetry C_1 .
 The point group associated with its full space group is C_1h.


 irot  :   1
 --------------------------------------------------------------------
 isymop:   1   0   0
           0   1   0
           0   0   1

 gtrans:     0.0000000     0.0000000     0.0000000

 ptrans:     0.0000000     0.0000000     0.0000000
 rotmap:
 (   1->   1)  (   2->   2)  (   3->   3)  (   4->   4)  (   5->   5) 
 (   6->   6)  (   7->   7)  (   8->   8)  (   9->   9)  (  10->  10) 
 (  11->  11)  (  12->  12)  (  13->  13)  (  14->  14)  (  15->  15) 
 (  16->  16)  (  17->  17)  (  18->  18)  (  19->  19)  (  20->  20) 
 (  21->  21)  (  22->  22)  (  23->  23)  (  24->  24)  (  25->  25) 
 (  26->  26)  (  27->  27)  (  28->  28)  (  29->  29)  (  30->  30) 
 (  31->  31)  (  32->  32)  (  33->  33)  (  34->  34)  (  35->  35) 
 (  36->  36)  (  37->  37)  (  38->  38)  (  39->  39)  (  40->  40) 
 (  41->  41)  (  42->  42)  (  43->  43) 


 irot  :   2
 --------------------------------------------------------------------
 isymop:  -1   0   0
           0   1   0
           0   0   1

 gtrans:    -0.5000000     0.0000000     0.0000000

 ptrans:     0.0000000     0.0000000     0.0000000
 rotmap:
 (   1->   1)  (   2->   2)  (   3->   3)  (   4->   4)  (   5->   5) 
 (   6->   6)  (   7->   7)  (   8->   8)  (   9->   9)  (  10->  10) 
 (  11->  11)  (  12->  12)  (  13->  13)  (  14->  14)  (  15->  15) 
 (  16->  16)  (  17->  17)  (  18->  18)  (  19->  19)  (  20->  20) 
 (  21->  21)  (  22->  22)  (  23->  23)  (  24->  24)  (  25->  25) 
 (  26->  26)  (  27->  27)  (  28->  28)  (  29->  29)  (  30->  30) 
 (  31->  31)  (  32->  32)  (  33->  33)  (  34->  34)  (  35->  35) 
 (  36->  36)  (  37->  37)  (  38->  38)  (  39->  39)  (  40->  40) 
 (  41->  41)  (  42->  42)  (  43->  43) 
 
 
 KPOINTS: Automatic mesh                          

Automatic generation of k-mesh.
Space group operators:
 irot       det(A)        alpha          n_x          n_y          n_z        tau_x        tau_y        tau_z
    1     1.000000     0.000000     1.000000     0.000000     0.000000     0.000000     0.000000     0.000000
    2    -1.000000   180.000000     0.000000     1.000000     0.000000    -0.500000     0.000000     0.000000
 
 Subroutine IBZKPT returns following result:
 ===========================================
 
 Found     24 irreducible k-points:
 
 Following reciprocal coordinates:
            Coordinates               Weight
  0.000000  0.000000  0.000000      1.000000
  0.100000  0.000000  0.000000      2.000000
  0.200000  0.000000  0.000000      2.000000
  0.300000  0.000000  0.000000      2.000000
  0.400000  0.000000  0.000000      2.000000
  0.500000  0.000000  0.000000      1.000000
  0.000000  0.333333 -0.000000      2.000000
  0.100000  0.333333 -0.000000      4.000000
  0.200000  0.333333 -0.000000      4.000000
  0.300000  0.333333 -0.000000      4.000000
  0.400000  0.333333 -0.000000      4.000000
  0.500000  0.333333 -0.000000      2.000000
  0.000000 -0.000000  0.500000      1.000000
  0.100000 -0.000000  0.500000      2.000000
  0.200000 -0.000000  0.500000      2.000000
  0.300000 -0.000000  0.500000      2.000000
  0.400000 -0.000000  0.500000      2.000000
  0.500000 -0.000000  0.500000      1.000000
  0.000000  0.333333  0.500000      2.000000
  0.100000  0.333333  0.500000      4.000000
  0.200000  0.333333  0.500000      4.000000
  0.300000  0.333333  0.500000      4.000000
  0.400000  0.333333  0.500000      4.000000
  0.500000  0.333333  0.500000      2.000000
 
 Following cartesian coordinates:
            Coordinates               Weight
  0.000000  0.000000  0.000000      1.000000
  0.000000  0.034548  0.000000      2.000000
  0.000000  0.069097  0.000000      2.000000
  0.000000  0.103645  0.000000      2.000000
  0.000000  0.138194  0.000000      2.000000
  0.000000  0.172742  0.000000      1.000000
  0.033139  0.000000  0.001099      2.000000
  0.033139  0.034548  0.001099      4.000000
  0.033139  0.069097  0.001099      4.000000
  0.033139  0.103645  0.001099      4.000000
  0.033139  0.138194  0.001099      4.000000
  0.033139  0.172742  0.001099      2.000000
 -0.001068  0.000000 -0.033032      1.000000
 -0.001068  0.034548 -0.033032      2.000000
 -0.001068  0.069097 -0.033032      2.000000
 -0.001068  0.103645 -0.033032      2.000000
 -0.001068  0.138194 -0.033032      2.000000
 -0.001068  0.172742 -0.033032      1.000000
  0.032071  0.000000 -0.031932      2.000000
  0.032071  0.034548 -0.031932      4.000000
  0.032071  0.069097 -0.031932      4.000000
  0.032071  0.103645 -0.031932      4.000000
  0.032071  0.138194 -0.031932      4.000000
  0.032071  0.172742 -0.031932      2.000000
 
 TETIRR: Found    180 inequivalent tetrahedra from      360


--------------------------------------------------------------------------------------------------------




 Dimension of arrays:
   k-points           NKPTS =     24   k-points in BZ     NKDIM =     24   number of bands    NBANDS=    144
   number of dos      NEDOS =    301   number of ions     NIONS =     43
   non local maximal  LDIM  =      6   non local SUM 2l+1 LMDIM =     18
   total plane-waves  NPLWV =  80640
   max r-space proj   IRMAX =      1   max aug-charges    IRDMAX=   6919
   dimension x,y,z NGX =    16 NGY =   56 NGZ =   90
   dimension x,y,z NGXF=    32 NGYF=  112 NGZF=  180
   support grid    NGXF=    32 NGYF=  112 NGZF=  180
   ions per type =              12  24   7
 NGX,Y,Z   is equivalent  to a cutoff of   9.19,  9.24,  9.87 a.u.
 NGXF,Y,Z  is equivalent  to a cutoff of  18.38, 18.48, 19.74 a.u.


 I would recommend the setting:
   dimension x,y,z NGX =    16 NGY =   56 NGZ =   85
 SYSTEM =  unknown system                          
 POSCAR =                                          

 Startparameter for this run:
   NWRITE =      1    write-flag & timer
   PREC   = normal    normal or accurate (medium, high low for compatibility)
   ISTART =      1    job   : 0-new  1-cont  2-samecut
   ICHARG =     11    charge: 1-file 2-atom 10-const
   ISPIN  =      2    spin polarized calculation?
   LNONCOLLINEAR =      F non collinear calculations
   LSORBIT =      F    spin-orbit coupling
   INIWAV =      1    electr: 0-lowe 1-rand  2-diag
   LASPH  =      F    aspherical Exc in radial PAW
   METAGGA=      F    non-selfconsistent MetaGGA calc.

 Electronic Relaxation 1
   ENCUT  =  520.0 eV  38.22 Ry    6.18 a.u.   5.38 18.73 28.19*2*pi/ulx,y,z
   ENINI  =  520.0     initial cutoff
   ENAUG  =  605.4 eV  augmentation charge cutoff
   NELM   =     60;   NELMIN=  5; NELMDL=  0     # of ELM steps 
   EDIFF  = 0.1E-04   stopping-criterion for ELM
   LREAL  =      F    real-space projection
   NLSPLINE    = F    spline interpolate recip. space projectors
   LCOMPAT=      F    compatible to vasp.4.4
   GGA_COMPAT  = T    GGA compatible to vasp.4.4-vasp.4.6
   LMAXPAW     = -100 max onsite density
   LMAXMIX     =    4 max onsite mixed and CHGCAR
   VOSKOWN=      1    Vosko Wilk Nusair interpolation
   ROPT   =    0.00000   0.00000   0.00000
 Ionic relaxation
   EDIFFG = -.2E-01   stopping-criterion for IOM
   NSW    =      0    number of steps for IOM
   NBLOCK =      1;   KBLOCK =      1    inner block; outer block 
   IBRION =     -1    ionic relax: 0-MD 1-quasi-New 2-CG
   NFREE  =      0    steps in history (QN), initial steepest desc. (CG)
   ISIF   =      2    stress and relaxation
   IWAVPR =     10    prediction:  0-non 1-charg 2-wave 3-comb
   ISYM   =      2    0-nonsym 1-usesym 2-fastsym
   LCORR  =      T    Harris-Foulkes like correction to forces

   POTIM  = 0.5000    time-step for ionic-motion
   TEIN   =    0.0    initial temperature
   TEBEG  =    0.0;   TEEND  =   0.0 temperature during run
   SMASS  =  -3.00    Nose mass-parameter (am)
   estimated Nose-frequenzy (Omega)   =  0.10E-29 period in steps =****** mass=  -0.191E-27a.u.
   SCALEE = 1.0000    scale energy and forces
   NPACO  =    256;   APACO  = 16.0  distance and # of slots for P.C.
   PSTRESS=    0.0 pullay stress

  Mass of Ions in am
   POMASS =  54.94 16.00  7.01
  Ionic Valenz
   ZVAL   =   7.00  6.00  1.00
  Atomic Wigner-Seitz radii
   RWIGS  =  -1.00 -1.00 -1.00
  virtual crystal weights 
   VCA    =   1.00  1.00  1.00
   NELECT =     235.0000    total number of electrons
   NUPDOWN=      -1.0000    fix difference up-down

 DOS related values:
   EMIN   =  10.00;   EMAX   =-10.00  energy-range for DOS
   EFERMI =   0.00
   ISMEAR =    -5;   SIGMA  =   0.20  broadening in eV -4-tet -1-fermi 0-gaus

 Electronic relaxation 2 (details)
   IALGO  =     38    algorithm
   LDIAG  =      T    sub-space diagonalisation (order eigenvalues)
   LSUBROT=      T    optimize rotation matrix (better conditioning)
   TURBO    =      0    0=normal 1=particle mesh
   IRESTART =      0    0=no restart 2=restart with 2 vectors
   NREBOOT  =      0    no. of reboots
   NMIN     =      0    reboot dimension
   EREF     =   0.00    reference energy to select bands
   IMIX   =      4    mixing-type and parameters
     AMIX     =   0.40;   BMIX     =  1.00
     AMIX_MAG =   1.60;   BMIX_MAG =  1.00
     AMIN     =   0.10
     WC   =   100.;   INIMIX=   1;  MIXPRE=   1;  MAXMIX= -45

 Intra band minimization:
   WEIMIN = 0.0000     energy-eigenvalue tresh-hold
   EBREAK =  0.17E-07  absolut break condition
   DEPER  =   0.30     relativ break condition  

   TIME   =   0.40     timestep for ELM

  volume/ion in A,a.u.               =      10.26        69.24
  Fermi-wavevector in a.u.,A,eV,Ry     =   1.327069  2.507797 23.961385  1.761112
  Thomas-Fermi vector in A             =   2.456409
 
 Write flags
   LWAVE  =      T    write WAVECAR
   LCHARG =      T    write CHGCAR
   LVTOT  =      F    write LOCPOT, total local potential
   LVHAR  =      F    write LOCPOT, Hartree potential only
   LELF   =      F    write electronic localiz. function (ELF)
   LORBIT =     11    0 simple, 1 ext, 2 COOP (PROOUT)


 Dipole corrections
   LMONO  =      F    monopole corrections only (constant potential shift)
   LDIPOL =      F    correct potential (dipole corrections)
   IDIPOL =      0    1-x, 2-y, 3-z, 4-all directions 
   EPSILON=  1.0000000 bulk dielectric constant

 LDA+U is selected, type is set to LDAUTYPE =  2
   angular momentum for each species LDAUL =     2   -1   -1
   U (eV)           for each species LDAUU =   3.9  0.0  0.0
   J (eV)           for each species LDAUJ =   0.0  0.0  0.0
 Exchange correlation treatment:
   GGA     =    --    GGA type
   LEXCH   =     8    internal setting for exchange type
   VOSKOWN=      1    Vosko Wilk Nusair interpolation
   LHFCALC =     F    Hartree Fock is set to
   LHFONE  =     F    Hartree Fock one center treatment
   AEXX    =    0.0000 exact exchange contribution

 Linear response parameters
   LEPSILON=     F    determine dielectric tensor
   LRPA    =     F    only Hartree local field effects (RPA)
   LNABLA  =     F    use nabla operator in PAW spheres
   LVEL    =     F    velocity operator in full k-point grid
   LINTERFAST=   F  fast interpolation
   KINTER  =     0    interpolate to denser k-point grid
   CSHIFT  =0.1000    complex shift for real part using Kramers Kronig
   OMEGAMAX=  -1.0    maximum frequency
   DEG_THRESHOLD= 0.2000000E-02 threshold for treating states as degnerate
   RTIME   =    0.100 relaxation time in fs

 Orbital magnetization related:
   ORBITALMAG=     F  switch on orbital magnetization
   LCHIMAG   =     F  perturbation theory with respect to B field
   DQ        =  0.001000  dq finite difference perturbation B field



--------------------------------------------------------------------------------------------------------


 Static calculation
 charge density and potential remain constant during run
 spin polarized calculation
 Variant of blocked Davidson
 Davidson routine will perform the subspace rotation
 perform sub-space diagonalisation
    after iterative eigenvector-optimisation
 no mixing
 using additional bands           26
 reciprocal scheme for non local part
 use partial core corrections
 calculate Harris-corrections to forces 
   (improved forces if not selfconsistent)
 use gradient corrections 
 WARNING: stress and forces are not correct
  (second derivative of E(xc) not defined)
 use of overlap-Matrix (Vanderbilt PP)
 Fermi weights with tetrahedron method with Bloechl corrections


--------------------------------------------------------------------------------------------------------


  energy-cutoff  :      520.00
  volume of cell :      441.18
      direct lattice vectors                 reciprocal lattice vectors
     0.000000000  2.894486979  0.000000000     0.000000000  0.345484366  0.000000000
    10.069357172  0.000000000 -0.325696784     0.099417883  0.000000000  0.003298077
     0.502690979  0.000000000-15.153214353    -0.002136846  0.000000000 -0.066063487

  length of vectors
     2.894486979 10.074623181 15.161550167     0.345484366  0.099472573  0.066098036


 
 old parameters found on file WAVECAR:
  energy-cutoff  :      520.00
  volume of cell :      441.18
      direct lattice vectors                 reciprocal lattice vectors
     0.000000000  2.894486979  0.000000000     0.000000000  0.345484366  0.000000000
    10.069357172  0.000000000 -0.325696784     0.099417883  0.000000000  0.003298077
     0.502690979  0.000000000-15.153214353    -0.002136846  0.000000000 -0.066063487

  length of vectors

 
 k-points in units of 2pi/SCALE and weight: Automatic mesh                          
   0.00000000  0.00000000  0.00000000       0.017
   0.00000000  0.03454844  0.00000000       0.033
   0.00000000  0.06909687  0.00000000       0.033
   0.00000000  0.10364531  0.00000000       0.033
   0.00000000  0.13819375  0.00000000       0.033
   0.00000000  0.17274218  0.00000000       0.017
   0.03313929  0.00000000  0.00109936       0.033
   0.03313929  0.03454844  0.00109936       0.067
   0.03313929  0.06909687  0.00109936       0.067
   0.03313929  0.10364531  0.00109936       0.067
   0.03313929  0.13819375  0.00109936       0.067
   0.03313929  0.17274218  0.00109936       0.033
  -0.00106842  0.00000000 -0.03303174       0.017
  -0.00106842  0.03454844 -0.03303174       0.033
  -0.00106842  0.06909687 -0.03303174       0.033
  -0.00106842  0.10364531 -0.03303174       0.033
  -0.00106842  0.13819375 -0.03303174       0.033
  -0.00106842  0.17274218 -0.03303174       0.017
   0.03207087  0.00000000 -0.03193238       0.033
   0.03207087  0.03454844 -0.03193238       0.067
   0.03207087  0.06909687 -0.03193238       0.067
   0.03207087  0.10364531 -0.03193238       0.067
   0.03207087  0.13819375 -0.03193238       0.067
   0.03207087  0.17274218 -0.03193238       0.033
 
 k-points in reciprocal lattice and weights: Automatic mesh                          
   0.00000000  0.00000000  0.00000000       0.017
   0.10000000  0.00000000  0.00000000       0.033
   0.20000000  0.00000000  0.00000000       0.033
   0.30000000  0.00000000  0.00000000       0.033
   0.40000000  0.00000000  0.00000000       0.033
   0.50000000  0.00000000  0.00000000       0.017
   0.00000000  0.33333333 -0.00000000       0.033
   0.10000000  0.33333333 -0.00000000       0.067
   0.20000000  0.33333333 -0.00000000       0.067
   0.30000000  0.33333333 -0.00000000       0.067
   0.40000000  0.33333333 -0.00000000       0.067
   0.50000000  0.33333333 -0.00000000       0.033
   0.00000000 -0.00000000  0.50000000       0.017
   0.10000000 -0.00000000  0.50000000       0.033
   0.20000000 -0.00000000  0.50000000       0.033
   0.30000000 -0.00000000  0.50000000       0.033
   0.40000000 -0.00000000  0.50000000       0.033
   0.50000000 -0.00000000  0.50000000       0.017
   0.00000000  0.33333333  0.50000000       0.033
   0.10000000  0.33333333  0.50000000       0.067
   0.20000000  0.33333333  0.50000000       0.067
   0.30000000  0.33333333  0.50000000       0.067
   0.40000000  0.33333333  0.50000000       0.067
   0.50000000  0.33333333  0.50000000       0.033
 
 position of ions in fractional coordinates (direct lattice) 
   0.25000000  0.15059239  0.65861425
   0.25000000  0.11894904  0.32186815
   0.25000000  0.11635093  0.98975803
   0.25000000  0.66113355  0.51222549
   0.25000000  0.62092938  0.17588386
   0.25000000  0.63500147  0.84320638
   0.75000000  0.85958159  0.33915002
   0.75000000  0.84172161  0.99221026
   0.75000000  0.87176962  0.67088982
   0.75000000  0.37298842  0.50703318
   0.75000000  0.32498049  0.15320631
   0.75000000  0.35655306  0.84186171
   0.25000000  0.30666675  0.58029967
   0.25000000  0.26266507  0.23309732
   0.25000000  0.27825005  0.91014942
   0.25000000  0.82194361  0.59616598
   0.25000000  0.78594185  0.27681012
   0.25000000  0.78301473  0.91947414
   0.75000000  0.71287390  0.42726766
   0.75000000  0.68108016  0.09985391
   0.75000000  0.69827881  0.76718475
   0.75000000  0.19193048  0.38196847
   0.75000000  0.16694404  0.06649251
   0.75000000  0.20462859  0.73075878
   0.25000000  0.43623854  0.42770136
   0.25000000  0.42749306  0.09893911
   0.25000000  0.46098644  0.77869867
   0.25000000  0.95266080  0.39733504
   0.25000000  0.93533237  0.05198455
   0.25000000  0.97155050  0.72928631
   0.75000000  0.56671818  0.57101424
   0.75000000  0.54324726  0.25148078
   0.75000000  0.55184888  0.90786528
   0.75000000  0.07565055  0.59127618
   0.75000000  0.02562232  0.25981101
   0.75000000  0.04909742  0.92489119
   0.25000000  0.99495128  0.51925746
   0.25000000  0.00707855  0.16153151
   0.25000000  0.59967872  0.34432933
   0.75000000  0.03766355  0.80602462
   0.75000000  0.38143844  0.33196011
   0.75000000  0.52677341  0.02801270
   0.75000000  0.53645209  0.69457288
 
 position of ions in cartesian coordinates  (Angst):
   1.84744803  0.72362174-10.02917032
   1.35954057  0.72362174 -4.91607832
   1.66912148  0.72362174-15.03591076
   6.91468102  0.72362174 -7.97719172
   6.34077494  0.72362174 -2.86744057
   6.81792880  0.72362174-12.98410491
   8.82592173  2.17086523 -5.41917595
   8.97437067  2.17086523-15.30932080
   9.11540994  2.17086523-10.45006988
   4.01063460  2.17086523 -7.80466364
   3.34936001  2.17086523 -2.42741308
   4.01345641  2.17086523-12.87303910
   3.37964844  0.72362174 -8.89328572
   2.76204435  0.72362174 -3.61772281
   3.25932303  0.72362174-13.88231441
   8.57613105  0.72362174 -9.30153531
   8.05307912  0.72362174 -4.45054188
   8.34666630  0.72362174-14.18801413
   7.39296555  2.17086523 -6.70665924
   6.90823503  2.17086523 -1.73493332
   7.41687559  2.17086523-11.85274210
   2.12462871  2.17086523 -5.85056125
   1.71444439  2.17086523 -1.06194839
   2.42782423  2.17086523-11.13999133
   4.60764327  0.72362174 -6.62313193
   4.35431606  0.72362174 -1.63847868
   5.03328186  0.72362174-11.94992966
   9.79241865  0.72362174 -6.33118158
   9.44432789  0.72362174 -1.09236774
  10.14949466  0.72362174-11.36746265
   5.99353149  2.17086523 -8.83727952
   5.59656779  2.17086523 -3.98767599
   6.01313913  2.17086523-13.93681259
   1.05898164  2.17086523 -8.98437381
   0.38860493  2.17086523 -3.94531697
   0.95931396  2.17086523-14.03106539
  10.27954585  0.72362174 -8.19247208
   0.15247689  0.72362174 -2.45002713
   6.21147052  0.72362174 -5.41300964
   0.78442901  2.17086523-12.22613079
   4.00771324  2.17086523 -5.15449596
   5.31835132  2.17086523 -0.59605084
   5.75088318  2.17086523-10.69973251
 


--------------------------------------------------------------------------------------------------------


 k-point  1 :   0.0000 0.0000 0.0000  plane waves:   11935
 k-point  2 :   0.1000 0.0000 0.0000  plane waves:   11927
 k-point  3 :   0.2000 0.0000 0.0000  plane waves:   11879
 k-point  4 :   0.3000 0.0000 0.0000  plane waves:   11855
 k-point  5 :   0.4000 0.0000 0.0000  plane waves:   11830
 k-point  6 :   0.5000 0.0000 0.0000  plane waves:   11818
 k-point  7 :   0.0000 0.3333-0.0000  plane waves:   11923
 k-point  8 :   0.1000 0.3333-0.0000  plane waves:   11906
 k-point  9 :   0.2000 0.3333-0.0000  plane waves:   11903
 k-point 10 :   0.3000 0.3333-0.0000  plane waves:   11869
 k-point 11 :   0.4000 0.3333-0.0000  plane waves:   11837
 k-point 12 :   0.5000 0.3333-0.0000  plane waves:   11834
 k-point 13 :   0.0000-0.0000 0.5000  plane waves:   11946
 k-point 14 :   0.1000-0.0000 0.5000  plane waves:   11904
 k-point 15 :   0.2000-0.0000 0.5000  plane waves:   11904
 k-point 16 :   0.3000-0.0000 0.5000  plane waves:   11878
 k-point 17 :   0.4000-0.0000 0.5000  plane waves:   11826
 k-point 18 :   0.5000-0.0000 0.5000  plane waves:   11828
 k-point 19 :   0.0000 0.3333 0.5000  plane waves:   11912
 k-point 20 :   0.1000 0.3333 0.5000  plane waves:   11911
 k-point 21 :   0.2000 0.3333 0.5000  plane waves:   11897
 k-point 22 :   0.3000 0.3333 0.5000  plane waves:   11849
 k-point 23 :   0.4000 0.3333 0.5000  plane waves:   11844
 k-point 24 :   0.5000 0.3333 0.5000  plane waves:   11826

 maximum and minimum number of plane-waves per node :      1019      969

 maximum number of plane-waves:     11946
 maximum index in each direction: 
   IXMAX=    5   IYMAX=   18   IZMAX=   28
   IXMIN=   -5   IYMIN=  -19   IZMIN=  -28

 WARNING: aliasing errors must be expected set NGX to  22 to avoid them
 WARNING: aliasing errors must be expected set NGY to  76 to avoid them
 WARNING: aliasing errors must be expected set NGZ to 114 to avoid them
 aliasing errors are usually negligible using standard VASP settings
 and one can safely disregard these warnings

 parallel 3D FFT for wavefunctions:
    minimum data exchange during FFTs selected (reduces bandwidth)
 parallel 3D FFT for charge:
    minimum data exchange during FFTs selected (reduces bandwidth)


 total amount of memory used by VASP on root node    59062. kBytes
========================================================================

   base      :      30000. kBytes
   nonl-proj :      11056. kBytes
   fftplans  :        906. kBytes
   grid      :       2600. kBytes
   one-center:        124. kBytes
   wavefun   :      14376. kBytes
 
 initial charge density was supplied:
 number of electron     235.0000125 magnetization      -0.9975431
 keeping initial charge density in first step


--------------------------------------------------------------------------------------------------------


 Maximum index for augmentation-charges          217 (set IRDMAX)


--------------------------------------------------------------------------------------------------------


 First call to EWALD:  gamma=   0.233
 Maximum number of real-space cells 6x 2x 2
 Maximum number of reciprocal cells 1x 3x 5

 FEWALD executed in parallel
    FEWALD:  cpu time    0.00: real time    0.00


----------------------------------------- Iteration    1(   1)  ---------------------------------------


    POTLOK:  cpu time    0.05: real time    0.05
    SETDIJ:  cpu time    0.01: real time    0.01
     EDDAV:  cpu time    7.13: real time    7.14
 BZINTS: Fermi energy:  3.384917;235.000000 electrons
         Band energy:-813.922725;  BLOECHL correction:  0.000000
       DOS:  cpu time    0.01: real time    0.01
    --------------------------------------------
      LOOP:  cpu time    7.21: real time    7.29

 eigenvalue-minimisations  : 13912
 total energy-change (2. order) :-0.2538102E+03  (-0.2625571E+03)
 number of electron     235.0000125 magnetization      -0.9975431
 augmentation part      235.0000125 magnetization      -0.9975431

 Free energy of the ion-electron system (eV)
  ---------------------------------------------------
  alpha Z        PSCENC =       809.95663370
  Ewald energy   TEWEN  =    -11690.95730411
  -1/2 Hartree   DENC   =     -4756.36203761
  -exchange  EXHF       =         0.00000000
  -V(xc)+E(xc)   XCENC  =       544.74500941
  PAW double counting   =     19035.04902630   -18797.03182022
  entropy T*S    EENTRO =         0.00000000
  eigenvalues    EBANDS =      -813.92272521
  atomic energy  EATOM  =     15414.71298910
  ---------------------------------------------------
  free energy    TOTEN  =      -253.81022864 eV

  energy without entropy =     -253.81022864  energy(sigma->0) =     -253.81022864


--------------------------------------------------------------------------------------------------------




----------------------------------------- Iteration    1(   2)  ---------------------------------------


     EDDAV:  cpu time    9.23: real time    9.23
 BZINTS: Fermi energy:  2.778300;235.000000 electrons
         Band energy:-848.831496;  BLOECHL correction:  0.000000
       DOS:  cpu time    0.01: real time    0.01
    --------------------------------------------
      LOOP:  cpu time    9.24: real time    9.44

 eigenvalue-minimisations  : 20160
 total energy-change (2. order) :-0.3490877E+02  (-0.3468346E+02)
 number of electron     235.0000125 magnetization      -0.9975431
 augmentation part      235.0000125 magnetization      -0.9975431

 Free energy of the ion-electron system (eV)
  ---------------------------------------------------
  alpha Z        PSCENC =       809.95663370
  Ewald energy   TEWEN  =    -11690.95730411
  -1/2 Hartree   DENC   =     -4756.36203761
  -exchange  EXHF       =         0.00000000
  -V(xc)+E(xc)   XCENC  =       544.74500941
  PAW double counting   =     19035.04902630   -18797.03182022
  entropy T*S    EENTRO =         0.00000000
  eigenvalues    EBANDS =      -848.83149611
  atomic energy  EATOM  =     15414.71298910
  ---------------------------------------------------
  free energy    TOTEN  =      -288.71899953 eV

  energy without entropy =     -288.71899953  energy(sigma->0) =     -288.71899953


--------------------------------------------------------------------------------------------------------




----------------------------------------- Iteration    1(   3)  ---------------------------------------


     EDDAV:  cpu time    9.64: real time    9.64
 BZINTS: Fermi energy:  2.794061;235.000000 electrons
         Band energy:-850.270009;  BLOECHL correction:  0.000000
       DOS:  cpu time    0.01: real time    0.01
    --------------------------------------------
      LOOP:  cpu time    9.65: real time    9.87

 eigenvalue-minimisations  : 21224
 total energy-change (2. order) :-0.1438513E+01  (-0.1434641E+01)
 number of electron     235.0000125 magnetization      -0.9975431
 augmentation part      235.0000125 magnetization      -0.9975431

 Free energy of the ion-electron system (eV)
  ---------------------------------------------------
  alpha Z        PSCENC =       809.95663370
  Ewald energy   TEWEN  =    -11690.95730411
  -1/2 Hartree   DENC   =     -4756.36203761
  -exchange  EXHF       =         0.00000000
  -V(xc)+E(xc)   XCENC  =       544.74500941
  PAW double counting   =     19035.04902630   -18797.03182022
  entropy T*S    EENTRO =         0.00000000
  eigenvalues    EBANDS =      -850.27000869
  atomic energy  EATOM  =     15414.71298910
  ---------------------------------------------------
  free energy    TOTEN  =      -290.15751211 eV

  energy without entropy =     -290.15751211  energy(sigma->0) =     -290.15751211


--------------------------------------------------------------------------------------------------------




----------------------------------------- Iteration    1(   4)  ---------------------------------------


     EDDAV:  cpu time    9.66: real time    9.66
 BZINTS: Fermi energy:  2.765819;235.000000 electrons
         Band energy:-850.352418;  BLOECHL correction:  0.000000
       DOS:  cpu time    0.01: real time    0.01
    --------------------------------------------
      LOOP:  cpu time    9.67: real time    9.92

 eigenvalue-minimisations  : 21360
 total energy-change (2. order) :-0.8240914E-01  (-0.8232575E-01)
 number of electron     235.0000125 magnetization      -0.9975431
 augmentation part      235.0000125 magnetization      -0.9975431

 Free energy of the ion-electron system (eV)
  ---------------------------------------------------
  alpha Z        PSCENC =       809.95663370
  Ewald energy   TEWEN  =    -11690.95730411
  -1/2 Hartree   DENC   =     -4756.36203761
  -exchange  EXHF       =         0.00000000
  -V(xc)+E(xc)   XCENC  =       544.74500941
  PAW double counting   =     19035.04902630   -18797.03182022
  entropy T*S    EENTRO =         0.00000000
  eigenvalues    EBANDS =      -850.35241783
  atomic energy  EATOM  =     15414.71298910
  ---------------------------------------------------
  free energy    TOTEN  =      -290.23992125 eV

  energy without entropy =     -290.23992125  energy(sigma->0) =     -290.23992125


--------------------------------------------------------------------------------------------------------




----------------------------------------- Iteration    1(   5)  ---------------------------------------


     EDDAV:  cpu time    9.52: real time    9.52
 BZINTS: Fermi energy:  2.810325;235.000000 electrons
         Band energy:-850.357574;  BLOECHL correction:  0.000000
       DOS:  cpu time    0.01: real time    0.01
    --------------------------------------------
      LOOP:  cpu time    9.53: real time    9.74

 eigenvalue-minimisations  : 20992
 total energy-change (2. order) :-0.5156154E-02  (-0.5152880E-02)
 number of electron     235.0000125 magnetization      -0.9975431
 augmentation part      235.0000125 magnetization      -0.9975431

 Free energy of the ion-electron system (eV)
  ---------------------------------------------------
  alpha Z        PSCENC =       809.95663370
  Ewald energy   TEWEN  =    -11690.95730411
  -1/2 Hartree   DENC   =     -4756.36203761
  -exchange  EXHF       =         0.00000000
  -V(xc)+E(xc)   XCENC  =       544.74500941
  PAW double counting   =     19035.04902630   -18797.03182022
  entropy T*S    EENTRO =         0.00000000
  eigenvalues    EBANDS =      -850.35757398
  atomic energy  EATOM  =     15414.71298910
  ---------------------------------------------------
  free energy    TOTEN  =      -290.24507740 eV

  energy without entropy =     -290.24507740  energy(sigma->0) =     -290.24507740


--------------------------------------------------------------------------------------------------------




----------------------------------------- Iteration    1(   6)  ---------------------------------------


     EDDAV:  cpu time    8.93: real time    8.93
 BZINTS: Fermi energy:  2.802994;235.000000 electrons
         Band energy:-850.358046;  BLOECHL correction:  0.000000
       DOS:  cpu time    0.01: real time    0.01
    --------------------------------------------
      LOOP:  cpu time    8.94: real time    9.06

 eigenvalue-minimisations  : 19208
 total energy-change (2. order) :-0.4724858E-03  (-0.4723646E-03)
 number of electron     235.0000125 magnetization      -0.9975431
 augmentation part      235.0000125 magnetization      -0.9975431

 Free energy of the ion-electron system (eV)
  ---------------------------------------------------
  alpha Z        PSCENC =       809.95663370
  Ewald energy   TEWEN  =    -11690.95730411
  -1/2 Hartree   DENC   =     -4756.36203761
  -exchange  EXHF       =         0.00000000
  -V(xc)+E(xc)   XCENC  =       544.74500941
  PAW double counting   =     19035.04902630   -18797.03182022
  entropy T*S    EENTRO =         0.00000000
  eigenvalues    EBANDS =      -850.35804646
  atomic energy  EATOM  =     15414.71298910
  ---------------------------------------------------
  free energy    TOTEN  =      -290.24554989 eV

  energy without entropy =     -290.24554989  energy(sigma->0) =     -290.24554989


--------------------------------------------------------------------------------------------------------




----------------------------------------- Iteration    1(   7)  ---------------------------------------


     EDDAV:  cpu time    7.39: real time    7.39
 BZINTS: Fermi energy:  2.801626;235.000000 electrons
         Band energy:-850.358084;  BLOECHL correction:  0.000000
       DOS:  cpu time    0.01: real time    0.01
    --------------------------------------------
      LOOP:  cpu time    7.41: real time    7.52

 eigenvalue-minimisations  : 14528
 total energy-change (2. order) :-0.3784423E-04  (-0.3783840E-04)
 number of electron     235.0000125 magnetization      -0.9975431
 augmentation part      235.0000125 magnetization      -0.9975431

 Free energy of the ion-electron system (eV)
  ---------------------------------------------------
  alpha Z        PSCENC =       809.95663370
  Ewald energy   TEWEN  =    -11690.95730411
  -1/2 Hartree   DENC   =     -4756.36203761
  -exchange  EXHF       =         0.00000000
  -V(xc)+E(xc)   XCENC  =       544.74500941
  PAW double counting   =     19035.04902630   -18797.03182022
  entropy T*S    EENTRO =         0.00000000
  eigenvalues    EBANDS =      -850.35808431
  atomic energy  EATOM  =     15414.71298910
  ---------------------------------------------------
  free energy    TOTEN  =      -290.24558773 eV

  energy without entropy =     -290.24558773  energy(sigma->0) =     -290.24558773


--------------------------------------------------------------------------------------------------------




----------------------------------------- Iteration    1(   8)  ---------------------------------------


     EDDAV:  cpu time    6.23: real time    6.23
 BZINTS: Fermi energy:  2.801601;235.000000 electrons
         Band energy:-850.358088;  BLOECHL correction:  0.000000
       DOS:  cpu time    0.01: real time    0.01
    --------------------------------------------
      LOOP:  cpu time    6.24: real time    6.47

 eigenvalue-minimisations  : 11024
 total energy-change (2. order) :-0.3686375E-05  (-0.3685965E-05)
 number of electron     235.0000125 magnetization      -0.9975431
 augmentation part      235.0000125 magnetization      -0.9975431

 Free energy of the ion-electron system (eV)
  ---------------------------------------------------
  alpha Z        PSCENC =       809.95663370
  Ewald energy   TEWEN  =    -11690.95730411
  -1/2 Hartree   DENC   =     -4756.36203761
  -exchange  EXHF       =         0.00000000
  -V(xc)+E(xc)   XCENC  =       544.74500941
  PAW double counting   =     19035.04902630   -18797.03182022
  entropy T*S    EENTRO =         0.00000000
  eigenvalues    EBANDS =      -850.35808800
  atomic energy  EATOM  =     15414.71298910
  ---------------------------------------------------
  free energy    TOTEN  =      -290.24559142 eV

  energy without entropy =     -290.24559142  energy(sigma->0) =     -290.24559142


--------------------------------------------------------------------------------------------------------




 average (electrostatic) potential at core
  the test charge radii are     1.0210  0.7215  0.9748
  (the norm of the test charge is              1.0000)
       1 -48.1546       2 -48.7071       3 -48.0351       4 -47.2506       5 -46.9983
       6 -48.0033       7 -48.5705       8 -47.0039       9 -47.1407      10 -47.2598
      11 -47.4705      12 -47.2568      13 -71.8721      14 -72.4376      15 -71.8122
      16 -71.6770      17 -72.2775      18 -71.8088      19 -72.2674      20 -71.2826
      21 -71.5183      22 -72.2739      23 -71.5753      24 -71.6204      25 -71.4934
      26 -71.7545      27 -71.9720      28 -72.6957      29 -71.7888      30 -71.9937
      31 -71.6869      32 -71.2082      33 -71.6088      34 -71.6178      35 -72.7426
      36 -71.6160      37 -25.5987      38 -26.0271      39 -25.5786      40 -24.9921
      41 -25.6518      42 -24.9766      43 -25.2637
 
 
 
 E-fermi :   2.8016     XC(G=0): -10.5779     alpha+bet :-11.0035


 spin component 1

 k-point   1 :       0.0000    0.0000    0.0000
  band No.  band energies     occupation 
      1     -16.6375      1.00000
      2     -15.8750      1.00000
      3     -15.8092      1.00000
      4     -15.6886      1.00000
      5     -15.5916      1.00000
      6     -15.4801      1.00000
      7     -15.4263      1.00000
      8     -15.2261      1.00000
      9     -15.1329      1.00000
     10     -15.0916      1.00000
     11     -14.9296      1.00000
     12     -14.8158      1.00000
     13     -14.7517      1.00000
     14     -14.6547      1.00000
     15     -14.5416      1.00000
     16     -14.5298      1.00000
     17     -14.4848      1.00000
     18     -14.4132      1.00000
     19     -14.3396      1.00000
     20     -14.2762      1.00000
     21     -14.2069      1.00000
     22     -14.1414      1.00000
     23     -14.1099      1.00000
     24     -13.8534      1.00000
     25      -4.4866      1.00000
     26      -4.2585      1.00000
     27      -3.9652      1.00000
     28      -3.8965      1.00000
     29      -3.8138      1.00000
     30      -3.6804      1.00000
     31      -3.4281      1.00000
     32      -3.3013      1.00000
     33      -3.1840      1.00000
     34      -3.1027      1.00000
     35      -3.0954      1.00000
     36      -2.8387      1.00000
     37      -2.7807      1.00000
     38      -2.6828      1.00000
     39      -2.6045      1.00000
     40      -2.4431      1.00000
     41      -2.4285      1.00000
     42      -2.3872      1.00000
     43      -2.3865      1.00000
     44      -2.3307      1.00000
     45      -2.3019      1.00000
     46      -2.2999      1.00000
     47      -2.2220      1.00000
     48      -2.0835      1.00000
     49      -1.9990      1.00000
     50      -1.9849      1.00000
     51      -1.9218      1.00000
     52      -1.8999      1.00000
     53      -1.6907      1.00000
     54      -1.6708      1.00000
     55      -1.6615      1.00000
     56      -1.5284      1.00000
     57      -1.5071      1.00000
     58      -1.4046      1.00000
     59      -1.3478      1.00000
     60      -1.3089      1.00000
     61      -1.2027      1.00000
     62      -1.0891      1.00000
     63      -1.0059      1.00000
     64      -0.9390      1.00000
     65      -0.8713      1.00000
     66      -0.7896      1.00000
     67      -0.7854      1.00000
     68      -0.7374      1.00000
     69      -0.6718      1.00000
     70      -0.6657      1.00000
     71      -0.5887      1.00000
     72      -0.5346      1.00000
     73      -0.4403      1.00000
     74      -0.3176      1.00000
     75      -0.2654      1.00000
     76      -0.1941      1.00000
     77      -0.1114      1.00000
     78      -0.0920      1.00000
     79      -0.0030      1.00000
     80       0.0860      1.00000
     81       0.1893      1.00000
     82       0.2079      1.00000
     83       0.2403      1.00000
     84       0.3548      1.00000
     85       0.4218      1.00000
     86       0.4248      1.00000
     87       0.4967      1.00000
     88       0.5073      1.00000
     89       0.5459      1.00000
     90       0.5835      1.00000
     91       0.7285      1.00000
     92       0.8160      1.00000
     93       0.8207      1.00000
     94       0.8466      1.00000
     95       0.8654      1.00000
     96       0.9076      1.00000
     97       1.0295      1.00000
     98       1.0321      1.00000
     99       1.1036      1.00000
    100       1.1403      1.00000
    101       1.2001      1.00000
    102       1.2681      1.00000
    103       1.2860      1.00000
    104       1.2989      1.00000
    105       1.4157      1.00000
    106       1.4368      1.00000
    107       1.5112      1.00000
    108       1.6018      1.00000
    109       1.6172      1.00000
    110       1.6198      1.00000
    111       1.7443      1.00000
    112       1.8409      1.00000
    113       1.9038      1.00000
    114       2.0103      1.00000
    115       2.2171      1.00000
    116       2.5735      1.00000
    117       2.6944      1.00000
    118       3.5767      0.00000
    119       3.9686      0.00000
    120       3.9981      0.00000
    121       4.1231      0.00000
    122       4.4599      0.00000
    123       4.6746      0.00000
    124       4.7522      0.00000
    125       4.9725      0.00000
    126       5.1440      0.00000
    127       5.3723      0.00000
    128       5.4597      0.00000
    129       5.5071      0.00000
    130       5.5623      0.00000
    131       5.7134      0.00000
    132       5.9756      0.00000
    133       5.9796      0.00000
    134       6.0178      0.00000
    135       6.0274      0.00000
    136       6.1248      0.00000
    137       6.2443      0.00000
    138       6.2735      0.00000
    139       6.5614      0.00000
    140       6.6640      0.00000
    141       6.7203      0.00000
    142       6.7934      0.00000
    143       6.8442      0.00000
    144       7.0562      0.00000

 k-point   2 :       0.1000    0.0000    0.0000
  band No.  band energies     occupation 
      1     -16.5618      1.00000
      2     -15.8115      1.00000
      3     -15.7328      1.00000
      4     -15.6162      1.00000
      5     -15.5376      1.00000
      6     -15.4162      1.00000
      7     -15.3899      1.00000
      8     -15.1867      1.00000
      9     -15.0894      1.00000
     10     -15.0478      1.00000
     11     -14.9193      1.00000
     12     -14.7757      1.00000
     13     -14.7269      1.00000
     14     -14.6209      1.00000
     15     -14.5312      1.00000
     16     -14.5161      1.00000
     17     -14.4573      1.00000
     18     -14.4098      1.00000
     19     -14.3339      1.00000
     20     -14.2721      1.00000
     21     -14.2110      1.00000
     22     -14.1516      1.00000
     23     -14.1222      1.00000
     24     -13.8589      1.00000
     25      -4.3582      1.00000
     26      -4.1303      1.00000
     27      -3.8678      1.00000
     28      -3.7737      1.00000
     29      -3.7141      1.00000
     30      -3.5676      1.00000
     31      -3.3083      1.00000
     32      -3.2591      1.00000
     33      -3.1503      1.00000
     34      -3.1146      1.00000
     35      -3.0674      1.00000
     36      -3.0300      1.00000
     37      -2.7577      1.00000
     38      -2.7239      1.00000
     39      -2.5963      1.00000
     40      -2.5547      1.00000
     41      -2.5290      1.00000
     42      -2.4644      1.00000
     43      -2.4124      1.00000
     44      -2.3604      1.00000
     45      -2.3108      1.00000
     46      -2.2828      1.00000
     47      -2.1980      1.00000
     48      -2.0765      1.00000
     49      -1.9776      1.00000
     50      -1.9345      1.00000
     51      -1.8922      1.00000
     52      -1.8209      1.00000
     53      -1.7766      1.00000
     54      -1.7637      1.00000
     55      -1.7054      1.00000
     56      -1.5010      1.00000
     57      -1.4620      1.00000
     58      -1.4430      1.00000
     59      -1.3605      1.00000
     60      -1.2912      1.00000
     61      -1.2719      1.00000
     62      -1.1415      1.00000
     63      -1.0894      1.00000
     64      -1.0217      1.00000
     65      -0.9462      1.00000
     66      -0.8902      1.00000
     67      -0.8282      1.00000
     68      -0.7183      1.00000
     69      -0.6764      1.00000
     70      -0.6494      1.00000
     71      -0.5853      1.00000
     72      -0.5345      1.00000
     73      -0.4610      1.00000
     74      -0.4196      1.00000
     75      -0.3608      1.00000
     76      -0.2442      1.00000
     77      -0.2212      1.00000
     78      -0.1602      1.00000
     79      -0.0527      1.00000
     80      -0.0256      1.00000
     81       0.0839      1.00000
     82       0.1756      1.00000
     83       0.2284      1.00000
     84       0.2986      1.00000
     85       0.3082      1.00000
     86       0.3319      1.00000
     87       0.3793      1.00000
     88       0.4705      1.00000
     89       0.4954      1.00000
     90       0.5343      1.00000
     91       0.6224      1.00000
     92       0.6737      1.00000
     93       0.7564      1.00000
     94       0.8384      1.00000
     95       0.8579      1.00000
     96       0.8942      1.00000
     97       0.9486      1.00000
     98       1.0401      1.00000
     99       1.1054      1.00000
    100       1.1108      1.00000
    101       1.1601      1.00000
    102       1.2005      1.00000
    103       1.2789      1.00000
    104       1.3044      1.00000
    105       1.3711      1.00000
    106       1.4240      1.00000
    107       1.4917      1.00000
    108       1.5504      1.00000
    109       1.6558      1.00000
    110       1.7084      1.00000
    111       1.7209      1.00000
    112       1.8216      1.00000
    113       1.8779      1.00000
    114       1.9674      1.00000
    115       2.2049      1.00000
    116       2.5618      1.00000
    117       2.6884      1.00000
    118       3.5883      0.00000
    119       3.9535      0.00000
    120       3.9980      0.00000
    121       4.0301      0.00000
    122       4.2636      0.00000
    123       4.5863      0.00000
    124       4.7050      0.00000
    125       4.8419      0.00000
    126       4.8901      0.00000
    127       5.1054      0.00000
    128       5.3806      0.00000
    129       5.5319      0.00000
    130       5.5478      0.00000
    131       5.8310      0.00000
    132       5.9909      0.00000
    133       6.0548      0.00000
    134       6.0641      0.00000
    135       6.0898      0.00000
    136       6.1200      0.00000
    137       6.2430      0.00000
    138       6.2778      0.00000
    139       6.5235      0.00000
    140       6.6302      0.00000
    141       6.7297      0.00000
    142       6.8626      0.00000
    143       6.9015      0.00000
    144       6.9872      0.00000

 k-point   3 :       0.2000    0.0000    0.0000
  band No.  band energies     occupation 
      1     -16.3528      1.00000
      2     -15.6429      1.00000
      3     -15.5215      1.00000
      4     -15.4241      1.00000
      5     -15.4019      1.00000
      6     -15.3146      1.00000
      7     -15.2392      1.00000
      8     -15.0928      1.00000
      9     -14.9645      1.00000
     10     -14.9220      1.00000
     11     -14.8891      1.00000
     12     -14.6939      1.00000
     13     -14.6522      1.00000
     14     -14.5370      1.00000
     15     -14.4999      1.00000
     16     -14.4740      1.00000
     17     -14.3987      1.00000
     18     -14.3701      1.00000
     19     -14.3134      1.00000
     20     -14.2563      1.00000
     21     -14.2215      1.00000
     22     -14.1790      1.00000
     23     -14.1552      1.00000
     24     -13.8740      1.00000
     25      -4.0236      1.00000
     26      -3.8077      1.00000
     27      -3.6699      1.00000
     28      -3.5326      1.00000
     29      -3.4998      1.00000
     30      -3.4069      1.00000
     31      -3.2566      1.00000
     32      -3.1650      1.00000
     33      -3.0993      1.00000
     34      -3.0772      1.00000
     35      -3.0341      1.00000
     36      -2.9063      1.00000
     37      -2.8333      1.00000
     38      -2.7989      1.00000
     39      -2.7248      1.00000
     40      -2.6301      1.00000
     41      -2.6139      1.00000
     42      -2.5438      1.00000
     43      -2.4673      1.00000
     44      -2.3816      1.00000
     45      -2.2376      1.00000
     46      -2.1695      1.00000
     47      -2.1175      1.00000
     48      -2.1119      1.00000
     49      -2.0114      1.00000
     50      -1.9733      1.00000
     51      -1.9036      1.00000
     52      -1.8635      1.00000
     53      -1.8117      1.00000
     54      -1.7531      1.00000
     55      -1.7344      1.00000
     56      -1.6425      1.00000
     57      -1.6225      1.00000
     58      -1.5611      1.00000
     59      -1.4818      1.00000
     60      -1.4217      1.00000
     61      -1.3497      1.00000
     62      -1.2956      1.00000
     63      -1.2329      1.00000
     64      -1.1702      1.00000
     65      -1.1132      1.00000
     66      -1.0846      1.00000
     67      -0.9783      1.00000
     68      -0.9077      1.00000
     69      -0.8628      1.00000
     70      -0.7803      1.00000
     71      -0.6885      1.00000
     72      -0.6611      1.00000
     73      -0.6055      1.00000
     74      -0.5517      1.00000
     75      -0.4906      1.00000
     76      -0.4379      1.00000
     77      -0.3024      1.00000
     78      -0.2687      1.00000
     79      -0.2265      1.00000
     80      -0.1977      1.00000
     81      -0.1227      1.00000
     82      -0.0379      1.00000
     83       0.0569      1.00000
     84       0.1113      1.00000
     85       0.1294      1.00000
     86       0.1736      1.00000
     87       0.2874      1.00000
     88       0.3341      1.00000
     89       0.4195      1.00000
     90       0.4633      1.00000
     91       0.5251      1.00000
     92       0.5645      1.00000
     93       0.6607      1.00000
     94       0.6740      1.00000
     95       0.7551      1.00000
     96       0.8880      1.00000
     97       0.9023      1.00000
     98       0.9907      1.00000
     99       1.0605      1.00000
    100       1.0943      1.00000
    101       1.1207      1.00000
    102       1.2047      1.00000
    103       1.2548      1.00000
    104       1.3220      1.00000
    105       1.3655      1.00000
    106       1.3927      1.00000
    107       1.4152      1.00000
    108       1.5201      1.00000
    109       1.6292      1.00000
    110       1.6667      1.00000
    111       1.7131      1.00000
    112       1.7437      1.00000
    113       1.7750      1.00000
    114       1.8419      1.00000
    115       2.1467      1.00000
    116       2.5196      1.00000
    117       2.5921      1.00000
    118       3.5790      0.00000
    119       3.7202      0.00000
    120       3.8840      0.00000
    121       3.9785      0.00000
    122       4.0402      0.00000
    123       4.2198      0.00000
    124       4.3893      0.00000
    125       4.4558      0.00000
    126       4.6674      0.00000
    127       5.0939      0.00000
    128       5.1956      0.00000
    129       5.4766      0.00000
    130       5.6495      0.00000
    131       5.7932      0.00000
    132       5.9700      0.00000
    133       6.0708      0.00000
    134       6.1220      0.00000
    135       6.1491      0.00000
    136       6.1788      0.00000
    137       6.4323      0.00000
    138       6.4392      0.00000
    139       6.5313      0.00000
    140       6.5620      0.00000
    141       6.6908      0.00000
    142       6.7358      0.00000
    143       6.8922      0.00000
    144       6.9160      0.00000

 k-point   4 :       0.3000    0.0000    0.0000
  band No.  band energies     occupation 
      1     -16.0629      1.00000
      2     -15.4424      1.00000
      3     -15.3379      1.00000
      4     -15.2352      1.00000
      5     -15.2022      1.00000
      6     -15.1279      1.00000
      7     -15.0000      1.00000
      8     -14.9769      1.00000
      9     -14.8805      1.00000
     10     -14.7868      1.00000
     11     -14.7265      1.00000
     12     -14.6268      1.00000
     13     -14.5459      1.00000
     14     -14.4927      1.00000
     15     -14.4289      1.00000
     16     -14.4180      1.00000
     17     -14.3702      1.00000
     18     -14.3203      1.00000
     19     -14.2520      1.00000
     20     -14.2334      1.00000
     21     -14.2132      1.00000
     22     -14.1971      1.00000
     23     -14.1654      1.00000
     24     -13.8943      1.00000
     25      -4.0832      1.00000
     26      -3.6841      1.00000
     27      -3.5469      1.00000
     28      -3.4930      1.00000
     29      -3.3427      1.00000
     30      -3.2983      1.00000
     31      -3.1921      1.00000
     32      -3.0699      1.00000
     33      -2.9806      1.00000
     34      -2.9411      1.00000
     35      -2.9207      1.00000
     36      -2.8380      1.00000
     37      -2.7977      1.00000
     38      -2.7901      1.00000
     39      -2.7651      1.00000
     40      -2.5903      1.00000
     41      -2.4704      1.00000
     42      -2.4367      1.00000
     43      -2.3860      1.00000
     44      -2.3555      1.00000
     45      -2.3072      1.00000
     46      -2.2797      1.00000
     47      -2.1961      1.00000
     48      -2.1435      1.00000
     49      -2.0429      1.00000
     50      -2.0009      1.00000
     51      -1.9517      1.00000
     52      -1.9141      1.00000
     53      -1.8762      1.00000
     54      -1.8543      1.00000
     55      -1.8255      1.00000
     56      -1.7733      1.00000
     57      -1.7097      1.00000
     58      -1.6711      1.00000
     59      -1.6419      1.00000
     60      -1.5568      1.00000
     61      -1.4964      1.00000
     62      -1.4170      1.00000
     63      -1.3453      1.00000
     64      -1.2962      1.00000
     65      -1.2847      1.00000
     66      -1.2087      1.00000
     67      -1.1709      1.00000
     68      -1.0012      1.00000
     69      -0.9145      1.00000
     70      -0.8624      1.00000
     71      -0.8380      1.00000
     72      -0.7882      1.00000
     73      -0.7479      1.00000
     74      -0.6092      1.00000
     75      -0.5418      1.00000
     76      -0.5103      1.00000
     77      -0.4917      1.00000
     78      -0.4432      1.00000
     79      -0.4288      1.00000
     80      -0.3926      1.00000
     81      -0.2971      1.00000
     82      -0.2055      1.00000
     83      -0.0850      1.00000
     84      -0.0475      1.00000
     85      -0.0025      1.00000
     86       0.1183      1.00000
     87       0.1777      1.00000
     88       0.2582      1.00000
     89       0.3125      1.00000
     90       0.3515      1.00000
     91       0.4480      1.00000
     92       0.4947      1.00000
     93       0.5247      1.00000
     94       0.6336      1.00000
     95       0.6398      1.00000
     96       0.7343      1.00000
     97       0.7692      1.00000
     98       0.8044      1.00000
     99       0.8720      1.00000
    100       0.9408      1.00000
    101       0.9999      1.00000
    102       1.0554      1.00000
    103       1.1285      1.00000
    104       1.1750      1.00000
    105       1.1950      1.00000
    106       1.2245      1.00000
    107       1.2762      1.00000
    108       1.3685      1.00000
    109       1.4602      1.00000
    110       1.5033      1.00000
    111       1.5636      1.00000
    112       1.6646      1.00000
    113       1.7344      1.00000
    114       1.8850      1.00000
    115       2.1040      1.00000
    116       2.4191      1.00000
    117       2.4972      1.00000
    118       3.5360      0.00000
    119       3.6032      0.00000
    120       3.7892      0.00000
    121       3.8917      0.00000
    122       4.0370      0.00000
    123       4.0620      0.00000
    124       4.3005      0.00000
    125       4.3649      0.00000
    126       4.5388      0.00000
    127       5.0660      0.00000
    128       5.2174      0.00000
    129       5.4070      0.00000
    130       5.7197      0.00000
    131       5.7680      0.00000
    132       5.8014      0.00000
    133       6.0972      0.00000
    134       6.1801      0.00000
    135       6.2578      0.00000
    136       6.3198      0.00000
    137       6.3930      0.00000
    138       6.4430      0.00000
    139       6.5315      0.00000
    140       6.6320      0.00000
    141       6.6961      0.00000
    142       6.7257      0.00000
    143       6.7558      0.00000
    144       6.8300      0.00000

 k-point   5 :       0.4000    0.0000    0.0000
  band No.  band energies     occupation 
      1     -15.7707      1.00000
      2     -15.4240      1.00000
      3     -15.2300      1.00000
      4     -15.0799      1.00000
      5     -14.9449      1.00000
      6     -14.9353      1.00000
      7     -14.8699      1.00000
      8     -14.8495      1.00000
      9     -14.7500      1.00000
     10     -14.6382      1.00000
     11     -14.5792      1.00000
     12     -14.5538      1.00000
     13     -14.4663      1.00000
     14     -14.4591      1.00000
     15     -14.4160      1.00000
     16     -14.3982      1.00000
     17     -14.3448      1.00000
     18     -14.3361      1.00000
     19     -14.2423      1.00000
     20     -14.2251      1.00000
     21     -14.2127      1.00000
     22     -14.2081      1.00000
     23     -14.0200      1.00000
     24     -13.9077      1.00000
     25      -4.4203      1.00000
     26      -3.8509      1.00000
     27      -3.7932      1.00000
     28      -3.6197      1.00000
     29      -3.5296      1.00000
     30      -3.2833      1.00000
     31      -3.1692      1.00000
     32      -3.1368      1.00000
     33      -2.9734      1.00000
     34      -2.8650      1.00000
     35      -2.8209      1.00000
     36      -2.7921      1.00000
     37      -2.7780      1.00000
     38      -2.7211      1.00000
     39      -2.6664      1.00000
     40      -2.6266      1.00000
     41      -2.5813      1.00000
     42      -2.5166      1.00000
     43      -2.4278      1.00000
     44      -2.3541      1.00000
     45      -2.2797      1.00000
     46      -2.2496      1.00000
     47      -2.1957      1.00000
     48      -2.1265      1.00000
     49      -2.0577      1.00000
     50      -2.0007      1.00000
     51      -1.9166      1.00000
     52      -1.8613      1.00000
     53      -1.8321      1.00000
     54      -1.7502      1.00000
     55      -1.6926      1.00000
     56      -1.6717      1.00000
     57      -1.5907      1.00000
     58      -1.5543      1.00000
     59      -1.4986      1.00000
     60      -1.4768      1.00000
     61      -1.3620      1.00000
     62      -1.3297      1.00000
     63      -1.3029      1.00000
     64      -1.2257      1.00000
     65      -1.1636      1.00000
     66      -1.1446      1.00000
     67      -1.1360      1.00000
     68      -1.0691      1.00000
     69      -1.0413      1.00000
     70      -0.9870      1.00000
     71      -0.7874      1.00000
     72      -0.7611      1.00000
     73      -0.6858      1.00000
     74      -0.6677      1.00000
     75      -0.6312      1.00000
     76      -0.5809      1.00000
     77      -0.5382      1.00000
     78      -0.5039      1.00000
     79      -0.4871      1.00000
     80      -0.4599      1.00000
     81      -0.3984      1.00000
     82      -0.3149      1.00000
     83      -0.2312      1.00000
     84      -0.2076      1.00000
     85      -0.1421      1.00000
     86      -0.0935      1.00000
     87      -0.0014      1.00000
     88       0.0156      1.00000
     89       0.0831      1.00000
     90       0.1423      1.00000
     91       0.1875      1.00000
     92       0.2224      1.00000
     93       0.3129      1.00000
     94       0.4133      1.00000
     95       0.4391      1.00000
     96       0.4999      1.00000
     97       0.5162      1.00000
     98       0.6043      1.00000
     99       0.6524      1.00000
    100       0.7175      1.00000
    101       0.7536      1.00000
    102       0.7920      1.00000
    103       0.8550      1.00000
    104       0.9398      1.00000
    105       1.0000      1.00000
    106       1.1795      1.00000
    107       1.2197      1.00000
    108       1.2891      1.00000
    109       1.3118      1.00000
    110       1.3853      1.00000
    111       1.4664      1.00000
    112       1.5519      1.00000
    113       1.6438      1.00000
    114       1.9369      1.00000
    115       2.2521      1.00000
    116       2.3402      1.00000
    117       2.5463      1.00000
    118       3.5148      0.00000
    119       3.6274      0.00000
    120       3.7990      0.00000
    121       3.9079      0.00000
    122       4.0755      0.00000
    123       4.1672      0.00000
    124       4.3997      0.00000
    125       4.4464      0.00000
    126       4.6656      0.00000
    127       5.0198      0.00000
    128       5.2633      0.00000
    129       5.3689      0.00000
    130       5.5852      0.00000
    131       5.7628      0.00000
    132       5.9170      0.00000
    133       6.0018      0.00000
    134       6.2249      0.00000
    135       6.2843      0.00000
    136       6.3368      0.00000
    137       6.4011      0.00000
    138       6.4289      0.00000
    139       6.5114      0.00000
    140       6.7141      0.00000
    141       6.7622      0.00000
    142       6.7682      0.00000
    143       6.8053      0.00000
    144       6.8429      0.00000

 k-point   6 :       0.5000    0.0000    0.0000
  band No.  band energies     occupation 
      1     -15.5638      1.00000
      2     -15.5341      1.00000
      3     -15.1681      1.00000
      4     -15.0184      1.00000
      5     -14.9296      1.00000
      6     -14.8435      1.00000
      7     -14.8144      1.00000
      8     -14.7624      1.00000
      9     -14.6188      1.00000
     10     -14.5804      1.00000
     11     -14.5275      1.00000
     12     -14.5037      1.00000
     13     -14.4660      1.00000
     14     -14.4181      1.00000
     15     -14.4169      1.00000
     16     -14.4095      1.00000
     17     -14.3838      1.00000
     18     -14.3546      1.00000
     19     -14.2367      1.00000
     20     -14.2241      1.00000
     21     -14.2039      1.00000
     22     -14.1966      1.00000
     23     -13.9691      1.00000
     24     -13.9004      1.00000
     25      -4.5472      1.00000
     26      -3.9731      1.00000
     27      -3.9384      1.00000
     28      -3.7297      1.00000
     29      -3.6270      1.00000
     30      -3.3789      1.00000
     31      -3.3476      1.00000
     32      -3.0609      1.00000
     33      -2.9599      1.00000
     34      -2.9473      1.00000
     35      -2.8766      1.00000
     36      -2.8175      1.00000
     37      -2.7746      1.00000
     38      -2.7640      1.00000
     39      -2.7239      1.00000
     40      -2.6027      1.00000
     41      -2.5327      1.00000
     42      -2.4900      1.00000
     43      -2.3642      1.00000
     44      -2.3445      1.00000
     45      -2.2701      1.00000
     46      -2.1823      1.00000
     47      -2.1725      1.00000
     48      -2.0746      1.00000
     49      -2.0214      1.00000
     50      -2.0116      1.00000
     51      -1.9125      1.00000
     52      -1.8409      1.00000
     53      -1.7830      1.00000
     54      -1.7730      1.00000
     55      -1.6033      1.00000
     56      -1.5829      1.00000
     57      -1.5417      1.00000
     58      -1.4265      1.00000
     59      -1.3475      1.00000
     60      -1.3068      1.00000
     61      -1.2893      1.00000
     62      -1.2606      1.00000
     63      -1.1917      1.00000
     64      -1.1670      1.00000
     65      -1.0694      1.00000
     66      -1.0035      1.00000
     67      -0.9147      1.00000
     68      -0.8880      1.00000
     69      -0.8596      1.00000
     70      -0.8383      1.00000
     71      -0.7828      1.00000
     72      -0.7312      1.00000
     73      -0.7217      1.00000
     74      -0.7204      1.00000
     75      -0.6528      1.00000
     76      -0.6257      1.00000
     77      -0.6029      1.00000
     78      -0.5187      1.00000
     79      -0.4906      1.00000
     80      -0.4285      1.00000
     81      -0.4184      1.00000
     82      -0.4012      1.00000
     83      -0.3602      1.00000
     84      -0.3479      1.00000
     85      -0.3322      1.00000
     86      -0.2251      1.00000
     87      -0.1988      1.00000
     88      -0.1822      1.00000
     89      -0.1748      1.00000
     90      -0.0376      1.00000
     91      -0.0107      1.00000
     92       0.0407      1.00000
     93       0.1456      1.00000
     94       0.2236      1.00000
     95       0.3784      1.00000
     96       0.4139      1.00000
     97       0.4314      1.00000
     98       0.4911      1.00000
     99       0.5045      1.00000
    100       0.5459      1.00000
    101       0.7272      1.00000
    102       0.7459      1.00000
    103       0.7621      1.00000
    104       0.7953      1.00000
    105       1.0099      1.00000
    106       1.0766      1.00000
    107       1.2214      1.00000
    108       1.2301      1.00000
    109       1.3311      1.00000
    110       1.4284      1.00000
    111       1.4379      1.00000
    112       1.4882      1.00000
    113       1.5500      1.00000
    114       1.9700      1.00000
    115       2.3270      1.00000
    116       2.3351      1.00000
    117       2.5812      1.00000
    118       3.5138      0.00000
    119       3.6368      0.00000
    120       3.8176      0.00000
    121       3.9255      0.00000
    122       4.0964      0.00000
    123       4.2441      0.00000
    124       4.4880      0.00000
    125       4.4896      0.00000
    126       4.7599      0.00000
    127       5.0059      0.00000
    128       5.2893      0.00000
    129       5.3392      0.00000
    130       5.5122      0.00000
    131       5.8101      0.00000
    132       5.8967      0.00000
    133       6.0150      0.00000
    134       6.1636      0.00000
    135       6.2341      0.00000
    136       6.2886      0.00000
    137       6.4481      0.00000
    138       6.4658      0.00000
    139       6.5530      0.00000
    140       6.6577      0.00000
    141       6.7566      0.00000
    142       6.7667      0.00000
    143       6.8044      0.00000
    144       6.8393      0.00000

 k-point   7 :       0.0000    0.3333   -0.0000
  band No.  band energies     occupation 
      1     -16.6349      1.00000
      2     -15.8937      1.00000
      3     -15.7576      1.00000
      4     -15.6875      1.00000
      5     -15.6070      1.00000
      6     -15.5683      1.00000
      7     -15.4323      1.00000
      8     -15.1890      1.00000
      9     -15.0962      1.00000
     10     -15.0108      1.00000
     11     -14.9497      1.00000
     12     -14.8138      1.00000
     13     -14.7732      1.00000
     14     -14.7204      1.00000
     15     -14.5609      1.00000
     16     -14.5011      1.00000
     17     -14.4664      1.00000
     18     -14.4011      1.00000
     19     -14.3560      1.00000
     20     -14.2775      1.00000
     21     -14.2045      1.00000
     22     -14.1427      1.00000
     23     -14.1099      1.00000
     24     -13.8535      1.00000
     25      -4.4675      1.00000
     26      -4.2747      1.00000
     27      -3.9558      1.00000
     28      -3.8886      1.00000
     29      -3.8161      1.00000
     30      -3.6768      1.00000
     31      -3.4164      1.00000
     32      -3.2914      1.00000
     33      -3.1694      1.00000
     34      -3.1026      1.00000
     35      -3.0926      1.00000
     36      -2.8503      1.00000
     37      -2.7893      1.00000
     38      -2.6807      1.00000
     39      -2.6041      1.00000
     40      -2.5243      1.00000
     41      -2.4285      1.00000
     42      -2.4263      1.00000
     43      -2.3872      1.00000
     44      -2.3568      1.00000
     45      -2.3026      1.00000
     46      -2.2216      1.00000
     47      -2.2126      1.00000
     48      -2.1481      1.00000
     49      -2.0901      1.00000
     50      -1.9827      1.00000
     51      -1.9212      1.00000
     52      -1.8244      1.00000
     53      -1.6931      1.00000
     54      -1.6770      1.00000
     55      -1.6546      1.00000
     56      -1.5330      1.00000
     57      -1.4667      1.00000
     58      -1.4051      1.00000
     59      -1.3113      1.00000
     60      -1.2884      1.00000
     61      -1.2016      1.00000
     62      -1.0617      1.00000
     63      -0.9480      1.00000
     64      -0.9373      1.00000
     65      -0.9131      1.00000
     66      -0.7827      1.00000
     67      -0.7771      1.00000
     68      -0.7549      1.00000
     69      -0.6700      1.00000
     70      -0.6411      1.00000
     71      -0.5934      1.00000
     72      -0.5412      1.00000
     73      -0.4203      1.00000
     74      -0.3812      1.00000
     75      -0.2838      1.00000
     76      -0.2109      1.00000
     77      -0.0857      1.00000
     78      -0.0759      1.00000
     79      -0.0126      1.00000
     80       0.0512      1.00000
     81       0.1303      1.00000
     82       0.1841      1.00000
     83       0.2524      1.00000
     84       0.3244      1.00000
     85       0.4091      1.00000
     86       0.4303      1.00000
     87       0.5196      1.00000
     88       0.5494      1.00000
     89       0.6018      1.00000
     90       0.6354      1.00000
     91       0.6864      1.00000
     92       0.7993      1.00000
     93       0.8139      1.00000
     94       0.9011      1.00000
     95       0.9248      1.00000
     96       0.9629      1.00000
     97       0.9968      1.00000
     98       1.0274      1.00000
     99       1.0444      1.00000
    100       1.1118      1.00000
    101       1.2152      1.00000
    102       1.2195      1.00000
    103       1.3671      1.00000
    104       1.3944      1.00000
    105       1.4299      1.00000
    106       1.4576      1.00000
    107       1.5049      1.00000
    108       1.5558      1.00000
    109       1.5815      1.00000
[...]
------------------------------------------------
tot       42.021  89.819  57.596 189.437
 


 magnetization (x)
 
# of ion     s       p       d       tot
----------------------------------------
  1        0.023   0.033   3.112   3.168
  2       -0.022  -0.028  -3.140  -3.190
  3        0.021   0.033   3.150   3.205
  4       -0.033  -0.033  -3.795  -3.861
  5        0.041   0.030   3.749   3.820
  6       -0.026  -0.035  -3.195  -3.256
  7        0.022   0.030   3.241   3.293
  8       -0.030  -0.027  -3.806  -3.862
  9        0.032   0.031   3.782   3.845
 10       -0.042  -0.032  -3.772  -3.846
 11        0.035   0.034   3.778   3.847
 12       -0.037  -0.030  -3.804  -3.871
 13        0.001   0.014   0.000   0.015
 14        0.000  -0.019   0.000  -0.019
 15        0.000   0.020   0.000   0.020
 16       -0.007  -0.083   0.000  -0.090
 17        0.007  -0.107   0.000  -0.100
 18        0.002   0.101   0.000   0.103
 19       -0.000   0.005   0.000   0.005
 20       -0.007  -0.079   0.000  -0.086
 21        0.005   0.074   0.000   0.079
 22       -0.003   0.091   0.000   0.087
 23        0.007  -0.026   0.000  -0.019
 24       -0.005  -0.075   0.000  -0.080
 25       -0.001   0.027   0.000   0.026
 26        0.004  -0.017   0.000  -0.013
 27        0.000   0.115   0.000   0.116
 28        0.001  -0.012   0.000  -0.012
 29       -0.001  -0.022   0.000  -0.023
 30       -0.001  -0.113   0.000  -0.114
 31       -0.004   0.019   0.000   0.015
 32        0.001  -0.036   0.000  -0.036
 33       -0.004   0.056   0.000   0.052
 34        0.004  -0.031   0.000  -0.028
 35       -0.000   0.004   0.000   0.003
 36       -0.005  -0.103   0.000  -0.107
 37       -0.000  -0.004   0.000  -0.004
 38        0.001   0.001   0.000   0.002
 39        0.001   0.002   0.000   0.003
 40        0.002  -0.000   0.000   0.002
 41       -0.002  -0.003   0.000  -0.005
 42       -0.001  -0.004   0.000  -0.004
 43       -0.002  -0.001   0.000  -0.004
------------------------------------------------
tot       -0.023  -0.199  -0.701  -0.923
 
    CHARGE:  cpu time    0.23: real time    0.23
    FORLOC:  cpu time    0.00: real time    0.00
    FORNL :  cpu time    2.54: real time    2.54
    STRESS:  cpu time    2.47: real time    2.47
    FORCOR:  cpu time    0.05: real time    0.05
    FORHAR:  cpu time    0.01: real time    0.01

  FORCE on cell =-STRESS in cart. coord.  units (eV):
  Direction    XX          YY          ZZ          XY          YZ          ZX
  --------------------------------------------------------------------------------------
  Alpha Z   809.95663   809.95663   809.95663
  Ewald   -4151.70031 -2008.95637 -5530.35352     0.00000    -0.00000   396.51044
  Hartree  1610.67919  2738.70642   398.79884    -0.00000     0.00000   222.62742
  E(xc)   -1145.28513 -1146.45392 -1146.69813     0.00000    -0.00000     0.03253
  Local    -886.31044 -4043.04591  1726.67775     0.00000     0.00000  -604.48114
  n-local  -801.54233  -764.07326  -790.04834     0.04395     0.00561     6.38430
  augment   540.47980   521.71584   535.92088    -0.00000     0.00000    -3.66981
  Kinetic  4020.12875  3888.78550  3993.08801    -0.06467    -0.00514   -17.59590
  Fock        0.00000     0.00000     0.00000     0.00000     0.00000     0.00000
  -------------------------------------------------------------------------------------
  Total      -3.59383    -3.36506    -2.65787     0.00000     0.00000    -0.19215
  in kB     -13.05139   -12.22058    -9.65234     0.00000     0.00000    -0.69783
  external pressure =      -11.64 kB  Pullay stress =        0.00 kB


 VOLUME and BASIS-vectors are now :
 -----------------------------------------------------------------------------
  energy-cutoff  :      520.00
  volume of cell :      441.18
      direct lattice vectors                 reciprocal lattice vectors
     0.000000000  2.894486979  0.000000000     0.000000000  0.345484366  0.000000000
    10.069357172  0.000000000 -0.325696784     0.099417883  0.000000000  0.003298077
     0.502690979  0.000000000-15.153214353    -0.002136846  0.000000000 -0.066063487

  length of vectors
     2.894486979 10.074623181 15.161550167     0.345484366  0.099472573  0.066098036


 FORCES acting on ions
    electron-ion (+dipol)            ewald-force                    non-local-force                 convergence-correction
 -----------------------------------------------------------------------------------------------
   -.526E+02 -.561E-14 -.157E+01   0.540E+02 0.102E-13 0.182E+01   -.124E+01 -.864E-20 -.135E+00   -.129E+00 0.626E-12 -.913E-01
   -.722E+02 0.117E-13 0.333E+02   0.735E+02 0.287E-13 -.344E+02   -.138E+01 0.284E-18 0.783E+00   -.321E-01 0.413E-13 0.299E+00
   -.559E+02 0.785E-14 0.184E+02   0.562E+02 -.472E-14 -.176E+02   -.970E-01 -.208E-19 -.542E+00   -.312E+00 0.456E-13 -.236E+00
   -.259E+01 0.127E-13 0.279E+02   0.179E+01 -.269E-13 -.307E+02   0.591E+00 -.961E-20 0.215E+01   0.204E+00 -.133E-13 0.523E+00
   -.336E+02 0.640E-14 0.133E+02   0.330E+02 0.193E-13 -.122E+02   0.409E+00 -.123E-19 -.106E+01   0.188E+00 0.350E-12 0.214E-01
   -.359E+02 0.286E-14 -.201E+02   0.362E+02 0.479E-13 0.195E+02   -.580E+00 0.164E-19 0.414E+00   0.264E+00 -.721E-13 0.894E-01
   0.607E+02 0.526E-13 -.133E+02   -.617E+02 0.227E-14 0.134E+02   0.114E+01 0.214E-18 -.972E-01   -.740E-01 -.133E-13 0.141E+00
   0.755E+02 0.355E-13 0.388E+02   -.751E+02 0.345E-14 -.385E+02   -.752E+00 -.671E-19 -.242E+00   0.319E+00 -.539E-14 -.124E+00
   0.834E+02 0.578E-13 0.259E+02   -.841E+02 -.496E-13 -.237E+02   0.123E+00 -.238E-19 -.143E+01   0.575E+00 -.170E-12 -.724E+00
   0.335E+02 0.461E-13 -.396E+02   -.319E+02 0.975E-15 0.388E+02   -.121E+01 -.266E-19 0.119E+01   -.398E+00 -.454E-13 -.424E+00
   -.159E+02 0.598E-13 -.134E+02   0.165E+02 -.304E-13 0.150E+02   -.221E+00 0.458E-20 -.150E+01   -.412E+00 -.452E-13 -.127E+00
   0.404E+02 0.572E-13 -.419E+02   -.400E+02 0.819E-14 0.402E+02   -.249E+00 0.276E-19 0.160E+01   -.132E+00 0.270E-12 0.122E+00
   -.548E+02 0.538E-13 0.350E+02   0.592E+02 -.105E-13 -.431E+02   -.436E+01 -.183E-19 0.787E+01   -.143E+00 0.808E-13 0.570E-01
   -.638E+02 0.564E-13 0.418E+02   0.679E+02 0.445E-14 -.464E+02   -.425E+01 0.190E-19 0.380E+01   0.744E-02 0.700E-13 0.655E+00
   -.299E+02 0.790E-13 0.468E+02   0.307E+02 -.271E-13 -.551E+02   -.111E+01 -.218E-19 0.801E+01   0.994E-01 -.505E-12 0.207E+00
   0.364E+02 0.607E-13 -.844E+02   -.408E+02 0.476E-13 0.951E+02   0.371E+01 -.298E-18 -.962E+01   0.536E+00 0.742E-13 -.959E+00
   0.821E+02 0.746E-13 -.148E+03   -.896E+02 -.477E-14 0.161E+03   0.705E+01 -.428E-18 -.136E+02   0.248E+00 0.271E-13 0.962E-01
   -.170E+02 0.646E-13 -.510E+02   0.215E+02 -.448E-15 0.599E+02   -.514E+01 0.377E-19 -.858E+01   0.418E+00 0.565E-14 -.221E+00
   0.634E+02 0.151E-12 -.256E+02   -.680E+02 0.102E-13 0.299E+02   0.482E+01 -.355E-19 -.368E+01   -.758E-01 -.346E-13 -.385E+00
   -.296E+02 0.155E-12 -.599E+02   0.368E+02 -.903E-14 0.705E+02   -.707E+01 0.620E-19 -.971E+01   -.493E-01 -.743E-13 -.713E+00
   -.351E+02 0.155E-12 -.132E+03   0.408E+02 -.197E-13 0.143E+03   -.576E+01 0.187E-18 -.994E+01   0.174E+00 -.813E-11 -.465E+00
   -.122E+03 0.134E-12 0.166E+03   0.131E+03 -.324E-13 -.183E+03   -.881E+01 0.376E-20 0.170E+02   -.364E+00 -.468E-13 0.182E+00
   -.323E+02 0.134E-12 0.114E+03   0.357E+02 0.410E-14 -.124E+03   -.288E+01 0.186E-19 0.929E+01   -.435E+00 -.676E-14 0.215E+00
   -.818E+02 0.151E-12 0.108E+03   0.914E+02 -.924E-14 -.120E+03   -.907E+01 0.942E-20 0.113E+02   -.436E+00 -.137E-13 0.586E+00
   -.217E+02 0.468E-13 -.156E+03   0.273E+02 0.138E-13 0.166E+03   -.528E+01 -.338E-19 -.991E+01   -.260E+00 0.438E-13 -.539E+00
   -.711E+02 0.430E-13 -.141E+03   0.797E+02 -.103E-13 0.151E+03   -.770E+01 -.961E-19 -.992E+01   -.708E+00 0.195E-13 -.482E+00
   0.673E+01 0.428E-13 -.207E+03   -.553E+01 -.188E-13 0.220E+03   -.755E+00 -.104E-18 -.120E+02   -.271E+00 0.101E-13 -.328E+00
   -.335E+02 0.476E-13 0.226E+03   0.342E+02 0.963E-14 -.242E+03   -.189E+00 0.744E-18 0.155E+02   -.234E+00 -.624E-14 0.231E+00
   0.407E+02 0.470E-13 0.206E+03   -.417E+02 0.721E-14 -.219E+03   0.145E+01 0.431E-19 0.127E+02   -.227E+00 -.190E-13 0.391E+00
   0.212E+02 0.595E-13 0.180E+03   -.209E+02 -.247E-14 -.192E+03   0.869E-01 -.108E-18 0.123E+02   -.241E+00 0.302E-13 0.373E+00
   0.583E+02 0.160E-12 0.167E+03   -.675E+02 0.328E-13 -.178E+03   0.860E+01 -.149E-18 0.104E+02   0.484E+00 -.549E-14 0.528E+00
   0.675E+02 0.153E-12 0.143E+03   -.746E+02 -.264E-14 -.152E+03   0.654E+01 0.447E-19 0.790E+01   0.477E+00 -.881E-11 0.676E+00
   0.628E+02 0.158E-12 0.199E+03   -.711E+02 -.115E-13 -.211E+03   0.789E+01 0.125E-18 0.112E+02   0.380E+00 -.200E-12 0.356E+00
   0.356E+02 0.167E-12 -.213E+03   -.398E+02 0.263E-15 0.226E+03   0.375E+01 -.176E-19 -.117E+02   0.380E+00 -.135E-10 -.614E+00
   0.343E+02 0.163E-12 -.220E+03   -.356E+02 0.357E-14 0.235E+03   0.942E+00 -.488E-19 -.144E+02   0.979E-01 -.203E-14 0.174E+00
   0.468E+02 0.168E-12 -.201E+03   -.533E+02 0.312E-13 0.214E+03   0.637E+01 0.153E-19 -.125E+02   0.811E-01 -.107E-13 -.441E+00
   -.551E+01 0.207E-14 -.132E+02   0.499E+01 0.268E-14 0.129E+02   0.494E+00 -.180E-20 0.283E+00   0.291E-01 0.225E-14 -.455E-01
   0.843E+01 0.379E-14 0.532E+00   -.901E+01 0.526E-14 0.334E+00   0.549E+00 0.174E-19 -.943E+00   0.360E-02 0.106E-15 0.373E-01
   0.149E+02 0.340E-14 0.882E+00   -.152E+02 0.448E-15 -.619E+00   0.242E+00 -.572E-20 -.264E+00   0.160E-01 0.170E-14 0.156E-01
   0.760E+01 -.380E-14 0.107E+02   -.700E+01 0.463E-14 -.110E+02   -.636E+00 0.652E-20 0.350E+00   -.140E-01 -.272E-15 0.250E-01
   -.983E+01 -.214E-14 0.429E+00   0.101E+02 -.231E-14 -.729E+00   -.235E+00 0.483E-19 0.233E+00   -.249E-02 -.264E-14 0.204E-01
   0.467E+01 -.134E-14 -.558E+01   -.414E+01 -.474E-14 0.596E+01   -.637E+00 -.230E-21 -.438E+00   0.207E-01 -.162E-15 -.950E-02
   0.680E+01 -.108E-14 -.167E+02   -.626E+01 -.702E-15 0.169E+02   -.566E+00 -.162E-19 -.186E+00   -.683E-02 -.280E-14 -.315E-01
 -----------------------------------------------------------------------------------------------
   0.153E+02 0.287E-11 -.799E+00   -.382E-13 0.204E-13 -.320E-13   -.154E+02 0.378E-18 0.174E+01   0.456E-01 -.301E-10 -.937E+00
 
 
 POSITION                                       TOTAL-FORCE (eV/Angst)
 -----------------------------------------------------------------------------------
      1.84745      0.72362    -10.02917        -0.023562      0.000000      0.023283
      1.35954      0.72362     -4.91608        -0.061829     -0.000000     -0.096451
      1.66912      0.72362    -15.03591        -0.084503     -0.000000      0.034680
      6.91468      0.72362     -7.97719        -0.012136     -0.000000     -0.130451
      6.34077      0.72362     -2.86744         0.006209     -0.000000      0.039591
      6.81793      0.72362    -12.98410        -0.059695     -0.000000     -0.035766
      8.82592      2.17087     -5.41918         0.023684     -0.000000      0.071941
      8.97437      2.17087    -15.30932         0.018376     -0.000000      0.008246
      9.11541      2.17087    -10.45007         0.009992     -0.000000     -0.029769
      4.01063      2.17087     -7.80466         0.003763     -0.000000     -0.041207
      3.34936      2.17087     -2.42741         0.002137     -0.000000      0.030278
      4.01346      2.17087    -12.87304         0.021568     -0.000000     -0.033625
      3.37965      0.72362     -8.89329        -0.051940     -0.000000     -0.157975
      2.76204      0.72362     -3.61772        -0.095414     -0.000000     -0.204960
      3.25932      0.72362    -13.88231        -0.216926     -0.000000     -0.103466
      8.57613      0.72362     -9.30154        -0.146380     -0.000000      0.202887
      8.05308      0.72362     -4.45054        -0.151617     -0.000000      0.087532
      8.34667      0.72362    -14.18801        -0.143379     -0.000000      0.098276
      7.39297      2.17087     -6.70666         0.141913     -0.000000      0.224950
      6.90824      2.17087     -1.73493         0.105879     -0.000000      0.161205
      7.41688      2.17087    -11.85274         0.132608      0.000000      0.156291
      2.12463      2.17087     -5.85056         0.148724     -0.000000     -0.060993
      1.71444      2.17087     -1.06195         0.111391     -0.000000     -0.161398
      2.42782      2.17087    -11.13999         0.108995     -0.000000     -0.132023
      4.60764      0.72362     -6.62313         0.041846     -0.000000      0.229405
      4.35432      0.72362     -1.63848         0.203031     -0.000000      0.177439
      5.03328      0.72362    -11.94993         0.174820     -0.000000      0.194572
      9.79242      0.72362     -6.33118         0.271340     -0.000000     -0.165480
      9.44433      0.72362     -1.09237         0.175885     -0.000000     -0.106660
     10.14949      0.72362    -11.36746         0.164517     -0.000000     -0.216196
      5.99353      2.17087     -8.83728        -0.108719     -0.000000     -0.109544
      5.59657      2.17087     -3.98768        -0.080561     -0.000000     -0.253932
      6.01314      2.17087    -13.93681        -0.070845     -0.000000     -0.164301
      1.05898      2.17087     -8.98437        -0.101128      0.000000      0.220017
      0.38860      2.17087     -3.94532        -0.221958     -0.000000      0.192089
      0.95931      2.17087    -14.03107        -0.050049     -0.000000      0.206451
     10.27955      0.72362     -8.19247         0.012677     -0.000000     -0.030486
      0.15248      0.72362     -2.45003        -0.029197     -0.000000     -0.040688
      6.21147      0.72362     -5.41301        -0.032749     -0.000000      0.014010
      0.78443      2.17087    -12.22613        -0.040480     -0.000000      0.011013
      4.00771      2.17087     -5.15450         0.030590     -0.000000     -0.046143
      5.31835      2.17087     -0.59605        -0.088619     -0.000000     -0.064036
      5.75088      2.17087    -10.69973        -0.038259     -0.000000      0.001393
 -----------------------------------------------------------------------------------
    total drift:                               -0.053432     -0.000000      0.008213


--------------------------------------------------------------------------------------------------------



  FREE ENERGIE OF THE ION-ELECTRON SYSTEM (eV)
  ---------------------------------------------------
  free  energy   TOTEN  =      -290.24559142 eV

  energy  without entropy=     -290.24559142  energy(sigma->0) =     -290.24559142
 


--------------------------------------------------------------------------------------------------------


    POTLOK:  cpu time    0.06: real time    0.06


--------------------------------------------------------------------------------------------------------


 writing wavefunctions
     LOOP+:  cpu time   88.79: real time  111.53
    4ORBIT:  cpu time    0.00: real time    0.00
 


 total charge     
 
# of ion     s       p       d       tot
----------------------------------------
  1        0.340   0.525   4.778   5.643
  2        0.348   0.532   4.817   5.696
  3        0.339   0.526   4.772   5.637
  4        0.300   0.407   4.818   5.524
  5        0.300   0.409   4.807   5.516
  6        0.338   0.520   4.770   5.628
  7        0.342   0.523   4.806   5.671
  8        0.291   0.397   4.798   5.486
  9        0.293   0.401   4.811   5.504
 10        0.301   0.408   4.806   5.515
 11        0.300   0.409   4.812   5.522
 12        0.290   0.392   4.801   5.483
 13        1.562   3.468   0.000   5.030
 14        1.560   3.469   0.000   5.029
 15        1.561   3.461   0.000   5.023
 16        1.560   3.482   0.000   5.042
 17        1.576   3.412   0.000   4.988
 18        1.564   3.453   0.000   5.016
 19        1.558   3.466   0.000   5.024
 20        1.559   3.465   0.000   5.025
 21        1.562   3.442   0.000   5.004
 22        1.577   3.405   0.000   4.982
 23        1.565   3.425   0.000   4.989
 24        1.566   3.429   0.000   4.995
 25        1.556   3.461   0.000   5.017
 26        1.562   3.469   0.000   5.031
 27        1.562   3.455   0.000   5.017
 28        1.569   3.459   0.000   5.029
 29        1.565   3.465   0.000   5.030
 30        1.561   3.459   0.000   5.020
 31        1.565   3.478   0.000   5.043
 32        1.555   3.461   0.000   5.015
 33        1.570   3.465   0.000   5.035
 34        1.564   3.453   0.000   5.017
 35        1.566   3.448   0.000   5.014
 36        1.570   3.469   0.000   5.039
 37        0.097   0.200   0.000   0.297
 38        0.086   0.172   0.000   0.258
 39        0.095   0.199   0.000   0.295
 40        0.117   0.245   0.000   0.361
 41        0.094   0.191   0.000   0.285
 42        0.115   0.240   0.000   0.354
 43        0.101   0.206   0.000   0.307
------------------------------------------------
tot       42.021  89.819  57.596 189.437
 


 magnetization (x)
 
# of ion     s       p       d       tot
----------------------------------------
  1        0.023   0.033   3.112   3.168
  2       -0.022  -0.028  -3.140  -3.190
  3        0.021   0.033   3.150   3.205
  4       -0.033  -0.033  -3.795  -3.861
  5        0.041   0.030   3.749   3.820
  6       -0.026  -0.035  -3.195  -3.256
  7        0.022   0.030   3.241   3.293
  8       -0.030  -0.027  -3.806  -3.862
  9        0.032   0.031   3.782   3.845
 10       -0.042  -0.032  -3.772  -3.846
 11        0.035   0.034   3.778   3.847
 12       -0.037  -0.030  -3.804  -3.871
 13        0.001   0.014   0.000   0.015
 14        0.000  -0.019   0.000  -0.019
 15        0.000   0.020   0.000   0.020
 16       -0.007  -0.083   0.000  -0.090
 17        0.007  -0.107   0.000  -0.100
 18        0.002   0.101   0.000   0.103
 19       -0.000   0.005   0.000   0.005
 20       -0.007  -0.079   0.000  -0.086
 21        0.005   0.074   0.000   0.079
 22       -0.003   0.091   0.000   0.087
 23        0.007  -0.026   0.000  -0.019
 24       -0.005  -0.075   0.000  -0.080
 25       -0.001   0.027   0.000   0.026
 26        0.004  -0.017   0.000  -0.013
 27        0.000   0.115   0.000   0.116
 28        0.001  -0.012   0.000  -0.012
 29       -0.001  -0.022   0.000  -0.023
 30       -0.001  -0.113   0.000  -0.114
 31       -0.004   0.019   0.000   0.015
 32        0.001  -0.036   0.000  -0.036
 33       -0.004   0.056   0.000   0.052
 34        0.004  -0.031   0.000  -0.028
 35       -0.000   0.004   0.000   0.003
 36       -0.005  -0.103   0.000  -0.107
 37       -0.000  -0.004   0.000  -0.004
 38        0.001   0.001   0.000   0.002
 39        0.001   0.002   0.000   0.003
 40        0.002  -0.000   0.000   0.002
 41       -0.002  -0.003   0.000  -0.005
 42       -0.001  -0.004   0.000  -0.004
 43       -0.002  -0.001   0.000  -0.004
------------------------------------------------
tot       -0.023  -0.199  -0.701  -0.923
 
 BZINTS: Fermi energy:  2.801601;235.000000 electrons
         Band energy:-850.358088;  BLOECHL correction:  0.000000

 total amount of memory used by VASP on root node    59062. kBytes
========================================================================

   base      :      30000. kBytes
   nonl-proj :      11056. kBytes
   fftplans  :        906. kBytes
   grid      :       2600. kBytes
   one-center:        124. kBytes
   wavefun   :      14376. kBytes
 
  
  
 General timing and accounting informations for this job:
 ========================================================
  
                  Total CPU time used (sec):      100.574
                            User time (sec):       98.701
                          System time (sec):        1.873
                         Elapsed time (sec):      125.762
  
                   Maximum memory used (kb):      127860.
                   Average memory used (kb):           0.
  
                          Minor page faults:        18139
                          Major page faults:            0
                 Voluntary context switches:         6239
