 vasp.5.3.3 18Dez12 (build May 12 2016 12:04:25) complex                        
  
 executed on             LinuxIFC date 2019.05.05  16:55:45
 running on   64 total cores
 distrk:  each k-point on   64 cores,    1 groups
 distr:  one band on NCORES_PER_BAND=   8 cores,    8 groups


--------------------------------------------------------------------------------------------------------


 INCAR:
 POTCAR:   PAW_PBE O_s 07Sep2000                  
 POTCAR:   PAW_PBE Mn 06Sep2000                   
 POTCAR:   PAW_PBE O_s 07Sep2000                  
  local pseudopotential read in
  atomic valenz-charges read in
  non local Contribution for L=           0  read in
    real space projection operators read in
  non local Contribution for L=           0  read in
    real space projection operators read in
  non local Contribution for L=           1  read in
    real space projection operators read in
  non local Contribution for L=           1  read in
    real space projection operators read in
    PAW grid and wavefunctions read in
 
   number of l-projection  operators is LMAX  =           4
   number of lm-projection operators is LMMAX =           8
 
 POTCAR:   PAW_PBE Mn 06Sep2000                   
  local pseudopotential read in
  partial core-charges read in
  atomic valenz-charges read in
  non local Contribution for L=           2  read in
    real space projection operators read in
  non local Contribution for L=           2  read in
    real space projection operators read in
  non local Contribution for L=           0  read in
    real space projection operators read in
  non local Contribution for L=           0  read in
    real space projection operators read in
  non local Contribution for L=           1  read in
    real space projection operators read in
  non local Contribution for L=           1  read in
    real space projection operators read in
    PAW grid and wavefunctions read in
 
   number of l-projection  operators is LMAX  =           6
   number of lm-projection operators is LMMAX =          18
 

 ----------------------------------------------------------------------------- 
|                                                                             |
|  ADVICE TO THIS USER RUNNING 'VASP/VAMP'   (HEAR YOUR MASTER'S VOICE ...):  |
|                                                                             |
|      You have a (more or less) 'large supercell' and for larger cells       |
|      it might be more efficient to use real space projection operators      |
|      So try LREAL= Auto  in the INCAR   file.                               |
|      Mind: If you want to do a very accurate calculations keep the          |
|      reciprocal projection scheme          (i.e. LREAL=.FALSE.)             |
|                                                                             |
 ----------------------------------------------------------------------------- 

 PAW_PBE O_s 07Sep2000                  :
 energy of atom  1       EATOM= -432.2909
 kinetic energy error for atom=    0.0182 (will be added to EATOM!!)
 PAW_PBE Mn 06Sep2000                   :
 energy of atom  2       EATOM= -416.8732
 kinetic energy error for atom=    0.0155 (will be added to EATOM!!)
 
 
 POSCAR: (Mn O2)12  (P1) ~ (Pearson #311740)_1 1 
  positions in direct lattice
  velocities in cartesian coordinates
  No initial velocities read in
 exchange correlation table for  LEXCH =        8
   RHO(1)=    0.500       N(1)  =     2000
   RHO(2)=  100.500       N(2)  =     4000
 


--------------------------------------------------------------------------------------------------------


 ion  position               nearest neighbor table
   1  0.000  0.500  0.349-  29 1.88  29 1.88  25 1.91
   2  0.000  0.500  0.566-  30 1.88  30 1.88  26 1.91
   3  0.000  0.500  0.784-  27 1.91
   4  0.500  0.805  0.174-  31 1.88  31 1.88  28 1.91
   5  0.500  0.195  0.174-  31 1.88  31 1.88  28 1.91
   6  0.500  0.805  0.391-  32 1.88  32 1.88  29 1.91
   7  0.500  0.195  0.391-  32 1.88  32 1.88  29 1.91
   8  0.500  0.805  0.609-  33 1.88  33 1.88  30 1.91
   9  0.500  0.195  0.609-  33 1.88  33 1.88  30 1.91
  10  0.000  0.500  0.216-  28 1.88  28 1.88  25 1.91
  11  0.000  0.500  0.434-  29 1.88  29 1.88  26 1.91
  12  0.000  0.500  0.651-  30 1.88  30 1.88  27 1.91
  13  0.000  0.000  0.240-  34 1.88  34 1.88  31 1.91
  14  0.000  0.000  0.458-  35 1.88  35 1.88  32 1.91
  15  0.000  0.000  0.675-  36 1.88  36 1.88  33 1.91
  16  0.500  0.305  0.283-  25 1.88  25 1.88  34 1.91
  17  0.500  0.695  0.283-  25 1.88  25 1.88  34 1.91
  18  0.500  0.305  0.500-  26 1.88  26 1.88  35 1.91
  19  0.500  0.695  0.500-  26 1.88  26 1.88  35 1.91
  20  0.500  0.305  0.717-  27 1.88  27 1.88  36 1.91
  21  0.500  0.695  0.717-  27 1.88  27 1.88  36 1.91
  22  0.000  0.000  0.325-  34 1.88  34 1.88  32 1.91
  23  0.000  0.000  0.542-  35 1.88  35 1.88  33 1.91
  24  0.000  0.000  0.760-  36 1.88  36 1.88
  25  0.000  0.500  0.283-  16 1.88  17 1.88  16 1.88  17 1.88   1 1.91  10 1.91
  26  0.000  0.500  0.500-  18 1.88  19 1.88  18 1.88  19 1.88   2 1.91  11 1.91
  27  0.000  0.500  0.717-  20 1.88  21 1.88  20 1.88  21 1.88  12 1.91   3 1.91
  28  0.500  0.500  0.174-  10 1.88  10 1.88   4 1.91   5 1.91
  29  0.500  0.500  0.391-  11 1.88  11 1.88   1 1.88   1 1.88   7 1.91   6 1.91
  30  0.500  0.500  0.609-   2 1.88   2 1.88  12 1.88  12 1.88   9 1.91   8 1.91
  31  0.000  0.000  0.174-   4 1.88   5 1.88   4 1.88   5 1.88  13 1.91
  32  0.000  0.000  0.391-   6 1.88   7 1.88   6 1.88   7 1.88  14 1.91  22 1.91
  33  0.000  0.000  0.609-   8 1.88   9 1.88   8 1.88   9 1.88  23 1.91  15 1.91
  34  0.500  0.000  0.283-  22 1.88  22 1.88  13 1.88  13 1.88  17 1.91  16 1.91
  35  0.500  0.000  0.500-  14 1.88  23 1.88  14 1.88  23 1.88  19 1.91  18 1.91
  36  0.500  0.000  0.717-  15 1.88  15 1.88  24 1.88  24 1.88  21 1.91  20 1.91
 
  LATTYP: Found a simple orthorhombic cell.
 ALAT       =     2.8700000000
 B/A-ratio  =     2.1779860627
 C/A-ratio  =    10.0182787456
  
  Lattice vectors:
  
 A1 = (   2.8700000000,   0.0000000000,   0.0000000000)
 A2 = (   0.0000000000,   6.2508200000,   0.0000000000)
 A3 = (   0.0000000000,   0.0000000000,  28.7524600000)


Analysis of symmetry for initial positions (statically):
=====================================================================
 Subroutine PRICEL returns:
 Original cell was already a primitive cell.
 

 Routine SETGRP: Setting up the symmetry group for a 
 simple orthorhombic supercell.


 Subroutine GETGRP returns: Found  4 space group operations
 (whereof  4 operations were pure point group operations)
 out of a pool of  8 trial point group operations.


The static configuration has the point symmetry C_2v.


Analysis of symmetry for dynamics (positions and initial velocities):
=====================================================================
 Subroutine PRICEL returns:
 Original cell was already a primitive cell.
 

 Routine SETGRP: Setting up the symmetry group for a 
 simple orthorhombic supercell.


 Subroutine GETGRP returns: Found  4 space group operations
 (whereof  4 operations were pure point group operations)
 out of a pool of  8 trial point group operations.


The dynamic configuration has the point symmetry C_2v.


Analysis of constrained symmetry for selective dynamics:
=====================================================================
 Subroutine PRICEL returns:
 Original cell was already a primitive cell.
 

 Routine SETGRP: Setting up the symmetry group for a 
 simple orthorhombic supercell.


 Subroutine GETGRP returns: Found  4 space group operations
 (whereof  4 operations were pure point group operations)
 out of a pool of  8 trial point group operations.


The constrained configuration has the point symmetry C_2v.


Analysis of magnetic symmetry:
=====================================================================

 Subroutine MAGSYM returns: Found  4 space group operations
 (whereof  4 operations were pure point group operations)
 out of a pool of  4 trial space group operations
 (whereof  4 operations were pure point group operations)
 and found also     1 'primitive' translations


The magnetic configuration has the point symmetry C_2v.


 irot  :   1
 --------------------------------------------------------------------
 isymop:   1   0   0
           0   1   0
           0   0   1

 gtrans:     0.0000000     0.0000000     0.0000000

 ptrans:     0.0000000     0.0000000     0.0000000
 rotmap:
 (   1->   1)  (   2->   2)  (   3->   3)  (   4->   4)  (   5->   5) 
 (   6->   6)  (   7->   7)  (   8->   8)  (   9->   9)  (  10->  10) 
 (  11->  11)  (  12->  12)  (  13->  13)  (  14->  14)  (  15->  15) 
 (  16->  16)  (  17->  17)  (  18->  18)  (  19->  19)  (  20->  20) 
 (  21->  21)  (  22->  22)  (  23->  23)  (  24->  24)  (  25->  25) 
 (  26->  26)  (  27->  27)  (  28->  28)  (  29->  29)  (  30->  30) 
 (  31->  31)  (  32->  32)  (  33->  33)  (  34->  34)  (  35->  35) 
 (  36->  36) 


 irot  :   2
 --------------------------------------------------------------------
 isymop:  -1   0   0
           0  -1   0
           0   0   1

 gtrans:     0.0000000     0.0000000     0.0000000

 ptrans:     0.0000000     0.0000000     0.0000000
 rotmap:
 (   1->   1)  (   2->   2)  (   3->   3)  (   4->   5)  (   5->   4) 
 (   6->   7)  (   7->   6)  (   8->   9)  (   9->   8)  (  10->  10) 
 (  11->  11)  (  12->  12)  (  13->  13)  (  14->  14)  (  15->  15) 
 (  16->  17)  (  17->  16)  (  18->  19)  (  19->  18)  (  20->  21) 
 (  21->  20)  (  22->  22)  (  23->  23)  (  24->  24)  (  25->  25) 
 (  26->  26)  (  27->  27)  (  28->  28)  (  29->  29)  (  30->  30) 
 (  31->  31)  (  32->  32)  (  33->  33)  (  34->  34)  (  35->  35) 
 (  36->  36) 


 irot  :   3
 --------------------------------------------------------------------
 isymop:   1   0   0
           0  -1   0
           0   0   1

 gtrans:     0.0000000     0.0000000     0.0000000

 ptrans:     0.0000000     0.0000000     0.0000000
 rotmap:
 (   1->   1)  (   2->   2)  (   3->   3)  (   4->   5)  (   5->   4) 
 (   6->   7)  (   7->   6)  (   8->   9)  (   9->   8)  (  10->  10) 
 (  11->  11)  (  12->  12)  (  13->  13)  (  14->  14)  (  15->  15) 
 (  16->  17)  (  17->  16)  (  18->  19)  (  19->  18)  (  20->  21) 
 (  21->  20)  (  22->  22)  (  23->  23)  (  24->  24)  (  25->  25) 
 (  26->  26)  (  27->  27)  (  28->  28)  (  29->  29)  (  30->  30) 
 (  31->  31)  (  32->  32)  (  33->  33)  (  34->  34)  (  35->  35) 
 (  36->  36) 


 irot  :   4
 --------------------------------------------------------------------
 isymop:  -1   0   0
           0   1   0
           0   0   1

 gtrans:     0.0000000     0.0000000     0.0000000

 ptrans:     0.0000000     0.0000000     0.0000000
 rotmap:
 (   1->   1)  (   2->   2)  (   3->   3)  (   4->   4)  (   5->   5) 
 (   6->   6)  (   7->   7)  (   8->   8)  (   9->   9)  (  10->  10) 
 (  11->  11)  (  12->  12)  (  13->  13)  (  14->  14)  (  15->  15) 
 (  16->  16)  (  17->  17)  (  18->  18)  (  19->  19)  (  20->  20) 
 (  21->  21)  (  22->  22)  (  23->  23)  (  24->  24)  (  25->  25) 
 (  26->  26)  (  27->  27)  (  28->  28)  (  29->  29)  (  30->  30) 
 (  31->  31)  (  32->  32)  (  33->  33)  (  34->  34)  (  35->  35) 
 (  36->  36) 
 
 
 KPOINTS: Automatic mesh                          

Automatic generation of k-mesh.
Space group operators:
 irot       det(A)        alpha          n_x          n_y          n_z        tau_x        tau_y        tau_z
    1     1.000000     0.000000     1.000000     0.000000     0.000000     0.000000     0.000000     0.000000
    2     1.000000   180.000000     0.000000     0.000000     1.000000     0.000000     0.000000     0.000000
    3    -1.000000   180.000000     0.000000     1.000000     0.000000     0.000000     0.000000     0.000000
    4    -1.000000   180.000000     1.000000     0.000000     0.000000     0.000000     0.000000     0.000000
 
 Subroutine IBZKPT returns following result:
 ===========================================
 
 Found      2 irreducible k-points:
 
 Following reciprocal coordinates:
            Coordinates               Weight
  0.000000  0.000000  0.000000      1.000000
  0.500000  0.000000  0.000000      1.000000
 
 Following cartesian coordinates:
            Coordinates               Weight
  0.000000  0.000000  0.000000      1.000000
  0.174216  0.000000  0.000000      1.000000
 


--------------------------------------------------------------------------------------------------------




 Dimension of arrays:
   k-points           NKPTS =      2   k-points in BZ     NKDIM =      2   number of bands    NBANDS=    136
   number of dos      NEDOS =    301   number of ions     NIONS =     36
   non local maximal  LDIM  =      6   non local SUM 2l+1 LMDIM =     18
   total plane-waves  NPLWV =  58800
   max r-space proj   IRMAX =      1   max aug-charges    IRDMAX=   4390
   dimension x,y,z NGX =    14 NGY =   30 NGZ =  140
   dimension x,y,z NGXF=    28 NGYF=   60 NGZF=  280
   support grid    NGXF=    28 NGYF=   60 NGZF=  280
   ions per type =              24  12
 NGX,Y,Z   is equivalent  to a cutoff of   8.11,  7.98,  8.09 a.u.
 NGXF,Y,Z  is equivalent  to a cutoff of  16.22, 15.96, 16.19 a.u.


 I would recommend the setting:
   dimension x,y,z NGX =    13 NGY =   29 NGZ =  135
 SYSTEM =  (Mn O2)12  (P1) ~ (Pearson              
 POSCAR =  (Mn O2)12  (P1) ~ (Pearson #311740)_1 1 

 Startparameter for this run:
   NWRITE =      1    write-flag & timer
   PREC   = normal    normal or accurate (medium, high low for compatibility)
   ISTART =      0    job   : 0-new  1-cont  2-samecut
   ICHARG =      2    charge: 1-file 2-atom 10-const
   ISPIN  =      2    spin polarized calculation?
   LNONCOLLINEAR =      F non collinear calculations
   LSORBIT =      F    spin-orbit coupling
   INIWAV =      1    electr: 0-lowe 1-rand  2-diag
   LASPH  =      F    aspherical Exc in radial PAW
   METAGGA=      F    non-selfconsistent MetaGGA calc.

 Electronic Relaxation 1
   ENCUT  =  367.7 eV  27.02 Ry    5.20 a.u.   4.49  9.77 44.95*2*pi/ulx,y,z
   ENINI  =  367.7     initial cutoff
   ENAUG  =  500.7 eV  augmentation charge cutoff
   NELM   =     60;   NELMIN=  2; NELMDL= -5     # of ELM steps 
   EDIFF  = 0.1E-03   stopping-criterion for ELM
   LREAL  =      F    real-space projection
   NLSPLINE    = F    spline interpolate recip. space projectors
   LCOMPAT=      F    compatible to vasp.4.4
   GGA_COMPAT  = T    GGA compatible to vasp.4.4-vasp.4.6
   LMAXPAW     = -100 max onsite density
   LMAXMIX     =    4 max onsite mixed and CHGCAR
   VOSKOWN=      1    Vosko Wilk Nusair interpolation
   ROPT   =    0.00000   0.00000
 Ionic relaxation
   EDIFFG = 0.1E-02   stopping-criterion for IOM
   NSW    =    100    number of steps for IOM
   NBLOCK =      1;   KBLOCK =    100    inner block; outer block 
   IBRION =      2    ionic relax: 0-MD 1-quasi-New 2-CG
   NFREE  =      1    steps in history (QN), initial steepest desc. (CG)
   ISIF   =      2    stress and relaxation
   IWAVPR =     11    prediction:  0-non 1-charg 2-wave 3-comb
   ISYM   =      2    0-nonsym 1-usesym 2-fastsym
   LCORR  =      T    Harris-Foulkes like correction to forces

   POTIM  = 0.5000    time-step for ionic-motion
   TEIN   =    0.0    initial temperature
   TEBEG  =    0.0;   TEEND  =   0.0 temperature during run
   SMASS  =  -3.00    Nose mass-parameter (am)
   estimated Nose-frequenzy (Omega)   =  0.10E-29 period in steps =****** mass=  -0.188E-27a.u.
   SCALEE = 1.0000    scale energy and forces
   NPACO  =    256;   APACO  = 16.0  distance and # of slots for P.C.
   PSTRESS=    0.0 pullay stress

  Mass of Ions in am
   POMASS =  16.00 54.94
  Ionic Valenz
   ZVAL   =   6.00  7.00
  Atomic Wigner-Seitz radii
   RWIGS  =  -1.00 -1.00
  virtual crystal weights 
   VCA    =   1.00  1.00
   NELECT =     228.0000    total number of electrons
   NUPDOWN=      -1.0000    fix difference up-down

 DOS related values:
   EMIN   =  10.00;   EMAX   =-10.00  energy-range for DOS
   EFERMI =   0.00
   ISMEAR =     1;   SIGMA  =   0.20  broadening in eV -4-tet -1-fermi 0-gaus

 Electronic relaxation 2 (details)
   IALGO  =     38    algorithm
   LDIAG  =      T    sub-space diagonalisation (order eigenvalues)
   LSUBROT=      T    optimize rotation matrix (better conditioning)
   TURBO    =      0    0=normal 1=particle mesh
   IRESTART =      0    0=no restart 2=restart with 2 vectors
   NREBOOT  =      0    no. of reboots
   NMIN     =      0    reboot dimension
   EREF     =   0.00    reference energy to select bands
   IMIX   =      4    mixing-type and parameters
     AMIX     =   0.40;   BMIX     =  1.00
     AMIX_MAG =   1.60;   BMIX_MAG =  1.00
     AMIN     =   0.10
     WC   =   100.;   INIMIX=   1;  MIXPRE=   1;  MAXMIX= -45

 Intra band minimization:
   WEIMIN = 0.0010     energy-eigenvalue tresh-hold
   EBREAK =  0.18E-06  absolut break condition
   DEPER  =   0.30     relativ break condition  

   TIME   =   0.40     timestep for ELM

  volume/ion in A,a.u.               =      14.33        96.69
  Fermi-wavevector in a.u.,A,eV,Ry     =   1.247063  2.356608 21.159328  1.555167
  Thomas-Fermi vector in A             =   2.381212
 
 Write flags
   LWAVE  =      F    write WAVECAR
   LCHARG =      F    write CHGCAR
   LVTOT  =      F    write LOCPOT, total local potential
   LVHAR  =      F    write LOCPOT, Hartree potential only
   LELF   =      F    write electronic localiz. function (ELF)
   LORBIT =      0    0 simple, 1 ext, 2 COOP (PROOUT)


 Dipole corrections
   LMONO  =      F    monopole corrections only (constant potential shift)
   LDIPOL =      F    correct potential (dipole corrections)
   IDIPOL =      0    1-x, 2-y, 3-z, 4-all directions 
   EPSILON=  1.0000000 bulk dielectric constant

 LDA+U is selected, type is set to LDAUTYPE =  2
   angular momentum for each species LDAUL =    -1    2
   U (eV)           for each species LDAUU =   0.0  3.9
   J (eV)           for each species LDAUJ =   0.0  0.0
 Exchange correlation treatment:
   GGA     =    --    GGA type
   LEXCH   =     8    internal setting for exchange type
   VOSKOWN=      1    Vosko Wilk Nusair interpolation
   LHFCALC =     F    Hartree Fock is set to
   LHFONE  =     F    Hartree Fock one center treatment
   AEXX    =    0.0000 exact exchange contribution

 Linear response parameters
   LEPSILON=     F    determine dielectric tensor
   LRPA    =     F    only Hartree local field effects (RPA)
   LNABLA  =     F    use nabla operator in PAW spheres
   LVEL    =     F    velocity operator in full k-point grid
   LINTERFAST=   F  fast interpolation
   KINTER  =     0    interpolate to denser k-point grid
   CSHIFT  =0.1000    complex shift for real part using Kramers Kronig
   OMEGAMAX=  -1.0    maximum frequency
   DEG_THRESHOLD= 0.2000000E-02 threshold for treating states as degnerate
   RTIME   =    0.100 relaxation time in fs

 Orbital magnetization related:
   ORBITALMAG=     F  switch on orbital magnetization
   LCHIMAG   =     F  perturbation theory with respect to B field
   DQ        =  0.001000  dq finite difference perturbation B field



--------------------------------------------------------------------------------------------------------


 conjugate gradient relaxation of ions
   using selective dynamics as specified on POSCAR
 charge density and potential will be updated during run
 spin polarized calculation
 Variant of blocked Davidson
 Davidson routine will perform the subspace rotation
 perform sub-space diagonalisation
    after iterative eigenvector-optimisation
 modified Broyden-mixing scheme, WC =      100.0
 initial mixing is a Kerker type mixing with AMIX =  0.4000 and BMIX =      1.0000
 Hartree-type preconditioning will be used
 using additional bands           22
 reciprocal scheme for non local part
 use partial core corrections
 calculate Harris-corrections to forces 
   (improved forces if not selfconsistent)
 use gradient corrections 
 use of overlap-Matrix (Vanderbilt PP)
 Methfessel and Paxton  Order N= 1 SIGMA  =   0.20


--------------------------------------------------------------------------------------------------------


  energy-cutoff  :      367.69
  volume of cell :      515.81
      direct lattice vectors                 reciprocal lattice vectors
     2.870000000  0.000000000  0.000000000     0.348432056  0.000000000  0.000000000
     0.000000000  6.250820000  0.000000000     0.000000000  0.159979011  0.000000000
     0.000000000  0.000000000 28.752460000     0.000000000  0.000000000  0.034779633

  length of vectors
     2.870000000  6.250820000 28.752460000     0.348432056  0.159979011  0.034779633


 
 k-points in units of 2pi/SCALE and weight: Automatic mesh                          
   0.00000000  0.00000000  0.00000000       0.500
   0.17421603  0.00000000  0.00000000       0.500
 
 k-points in reciprocal lattice and weights: Automatic mesh                          
   0.00000000  0.00000000  0.00000000       0.500
   0.50000000  0.00000000  0.00000000       0.500
 
 position of ions in fractional coordinates (direct lattice) 
   0.00000000  0.50000000  0.34885832
   0.00000000  0.50000000  0.56625955
   0.00000000  0.50000000  0.78366077
   0.50000000  0.80478000  0.17389816
   0.50000000  0.19522000  0.17389816
   0.50000000  0.80478000  0.39129939
   0.50000000  0.19522000  0.39129939
   0.50000000  0.80478000  0.60870061
   0.50000000  0.19522000  0.60870061
   0.00000000  0.50000000  0.21633923
   0.00000000  0.50000000  0.43374045
   0.00000000  0.50000000  0.65114168
   0.00000000  0.00000000  0.24015771
   0.00000000  0.00000000  0.45755893
   0.00000000  0.00000000  0.67496016
   0.50000000  0.30478000  0.28259878
   0.50000000  0.69522000  0.28259878
   0.50000000  0.30478000  0.50000000
   0.50000000  0.69522000  0.50000000
   0.50000000  0.30478000  0.71740122
   0.50000000  0.69522000  0.71740122
   0.00000000  0.00000000  0.32503984
   0.00000000  0.00000000  0.54244107
   0.00000000  0.00000000  0.75984229
   0.00000000  0.50000000  0.28259878
   0.00000000  0.50000000  0.50000000
   0.00000000  0.50000000  0.71740122
   0.50000000  0.50000000  0.17389816
   0.50000000  0.50000000  0.39129939
   0.50000000  0.50000000  0.60870061
   0.00000000  0.00000000  0.17389816
   0.00000000  0.00000000  0.39129939
   0.00000000  0.00000000  0.60870061
   0.50000000  0.00000000  0.28259878
   0.50000000  0.00000000  0.50000000
   0.50000000  0.00000000  0.71740122
 
 position of ions in cartesian coordinates  (Angst):
   0.00000000  3.12541000 10.03053489
   0.00000000  3.12541000 16.28135506
   0.00000000  3.12541000 22.53217494
   1.43500000  5.03053492  4.99999989
   1.43500000  1.22028508  4.99999989
   1.43500000  5.03053492 11.25082006
   1.43500000  1.22028508 11.25082006
   1.43500000  5.03053492 17.50163994
   1.43500000  1.22028508 17.50163994
   0.00000000  3.12541000  6.22028506
   0.00000000  3.12541000 12.47110494
   0.00000000  3.12541000 18.72192511
   0.00000000  0.00000000  6.90512495
   0.00000000  0.00000000 13.15594483
   0.00000000  0.00000000 19.40676500
   1.43500000  1.90512492  8.12541012
   1.43500000  4.34569508  8.12541012
   1.43500000  1.90512492 14.37623000
   1.43500000  4.34569508 14.37623000
   1.43500000  1.90512492 20.62704988
   1.43500000  4.34569508 20.62704988
   0.00000000  0.00000000  9.34569500
   0.00000000  0.00000000 15.59651517
   0.00000000  0.00000000 21.84733505
   0.00000000  3.12541000  8.12541012
   0.00000000  3.12541000 14.37623000
   0.00000000  3.12541000 20.62704988
   1.43500000  3.12541000  4.99999989
   1.43500000  3.12541000 11.25082006
   1.43500000  3.12541000 17.50163994
   0.00000000  0.00000000  4.99999989
   0.00000000  0.00000000 11.25082006
   0.00000000  0.00000000 17.50163994
   1.43500000  0.00000000  8.12541012
   1.43500000  0.00000000 14.37623000
   1.43500000  0.00000000 20.62704988
 


--------------------------------------------------------------------------------------------------------


 k-point  1 :   0.0000 0.0000 0.0000  plane waves:    8319
 k-point  2 :   0.5000 0.0000 0.0000  plane waves:    8204

 maximum and minimum number of plane-waves per node :      1052     1021

 maximum number of plane-waves:      8319
 maximum index in each direction: 
   IXMAX=    4   IYMAX=    9   IZMAX=   44
   IXMIN=   -4   IYMIN=   -9   IZMIN=  -44

 WARNING: aliasing errors must be expected set NGX to  18 to avoid them
 WARNING: aliasing errors must be expected set NGY to  38 to avoid them
 WARNING: aliasing errors must be expected set NGZ to 178 to avoid them
 aliasing errors are usually negligible using standard VASP settings
 and one can safely disregard these warnings

 parallel 3D FFT for wavefunctions:
    minimum data exchange during FFTs selected (reduces bandwidth)
 parallel 3D FFT for charge:
    minimum data exchange during FFTs selected (reduces bandwidth)


 total amount of memory used by VASP on root node    35314. kBytes
========================================================================

   base      :      30000. kBytes
   nonl-proj :       1179. kBytes
   fftplans  :        772. kBytes
   grid      :       2025. kBytes
   one-center:        155. kBytes
   wavefun   :       1183. kBytes
 
 Broyden mixing: mesh for mixing (old mesh)
   NGX =  9   NGY = 19   NGZ = 89
  (NGX  = 28   NGY  = 60   NGZ  =280)
  gives a total of  15219 points

 initial charge density was supplied:
 charge density of overlapping atoms calculated
 number of electron     228.0000000 magnetization       0.0000000
 keeping initial charge density in first step


--------------------------------------------------------------------------------------------------------


 Maximum index for augmentation-charges          308 (set IRDMAX)


--------------------------------------------------------------------------------------------------------


 First call to EWALD:  gamma=   0.221
 Maximum number of real-space cells 7x 3x 1
 Maximum number of reciprocal cells 1x 2x 9

 FEWALD executed in parallel
    FEWALD:  cpu time    0.00: real time    0.00


----------------------------------------- Iteration    1(   1)  ---------------------------------------


    POTLOK:  cpu time    0.04: real time    0.04
    SETDIJ:  cpu time    0.01: real time    0.01
     EDDAV:  cpu time    0.46: real time    0.46
       DOS:  cpu time    0.00: real time    0.00
    --------------------------------------------
      LOOP:  cpu time    0.50: real time    0.68

 eigenvalue-minimisations  :  1088
 total energy-change (2. order) : 0.3056535E+04  (-0.8161670E+04)
 number of electron     228.0000000 magnetization      -0.0000000
 augmentation part      228.0000000 magnetization      -0.0000000

 Free energy of the ion-electron system (eV)
  ---------------------------------------------------
  alpha Z        PSCENC =       610.67547827
  Ewald energy   TEWEN  =     63927.06616780
  -1/2 Hartree   DENC   =    -79266.51148228
  -exchange  EXHF       =         0.00000000
  -V(xc)+E(xc)   XCENC  =       534.39614183
  PAW double counting   =     10909.34114156   -10745.31768692
  entropy T*S    EENTRO =         0.02125435
  eigenvalues    EBANDS =      1710.02498971
  atomic energy  EATOM  =     15376.83878752
  ---------------------------------------------------
  free energy    TOTEN  =      3056.53479184 eV

  energy without entropy =     3056.51353749  energy(sigma->0) =     3056.52770705


--------------------------------------------------------------------------------------------------------




----------------------------------------- Iteration    1(   2)  ---------------------------------------


     EDDAV:  cpu time    0.45: real time    0.45
       DOS:  cpu time    0.00: real time    0.00
    --------------------------------------------
      LOOP:  cpu time    0.45: real time    0.51

 eigenvalue-minimisations  :  1088
 total energy-change (2. order) :-0.2655281E+04  (-0.2547334E+04)
 number of electron     228.0000000 magnetization      -0.0000000
 augmentation part      228.0000000 magnetization      -0.0000000

 Free energy of the ion-electron system (eV)
  ---------------------------------------------------
  alpha Z        PSCENC =       610.67547827
  Ewald energy   TEWEN  =     63927.06616780
  -1/2 Hartree   DENC   =    -79266.51148228
  -exchange  EXHF       =         0.00000000
  -V(xc)+E(xc)   XCENC  =       534.39614183
  PAW double counting   =     10909.34114156   -10745.31768692
  entropy T*S    EENTRO =         0.00749274
  eigenvalues    EBANDS =      -945.24257487
  atomic energy  EATOM  =     15376.83878752
  ---------------------------------------------------
  free energy    TOTEN  =       401.25346565 eV

  energy without entropy =      401.24597291  energy(sigma->0) =      401.25096807


--------------------------------------------------------------------------------------------------------




----------------------------------------- Iteration    1(   3)  ---------------------------------------


     EDDAV:  cpu time    0.60: real time    0.60
       DOS:  cpu time    0.00: real time    0.00
    --------------------------------------------
      LOOP:  cpu time    0.60: real time    0.90

 eigenvalue-minimisations  :  1592
 total energy-change (2. order) :-0.6702516E+03  (-0.6428425E+03)
 number of electron     228.0000000 magnetization      -0.0000000
 augmentation part      228.0000000 magnetization      -0.0000000

 Free energy of the ion-electron system (eV)
  ---------------------------------------------------
  alpha Z        PSCENC =       610.67547827
  Ewald energy   TEWEN  =     63927.06616780
  -1/2 Hartree   DENC   =    -79266.51148228
  -exchange  EXHF       =         0.00000000
  -V(xc)+E(xc)   XCENC  =       534.39614183
  PAW double counting   =     10909.34114156   -10745.31768692
  entropy T*S    EENTRO =         0.00380667
  eigenvalues    EBANDS =     -1615.49052321
  atomic energy  EATOM  =     15376.83878752
  ---------------------------------------------------
  free energy    TOTEN  =      -268.99816876 eV

  energy without entropy =     -269.00197543  energy(sigma->0) =     -268.99943765


--------------------------------------------------------------------------------------------------------




----------------------------------------- Iteration    1(   4)  ---------------------------------------


     EDDAV:  cpu time    0.62: real time    0.62
       DOS:  cpu time    0.00: real time    0.00
    --------------------------------------------
      LOOP:  cpu time    0.62: real time    0.69

 eigenvalue-minimisations  :  1696
 total energy-change (2. order) :-0.6980097E+02  (-0.6840808E+02)
 number of electron     228.0000000 magnetization      -0.0000000
 augmentation part      228.0000000 magnetization      -0.0000000

 Free energy of the ion-electron system (eV)
  ---------------------------------------------------
  alpha Z        PSCENC =       610.67547827
  Ewald energy   TEWEN  =     63927.06616780
  -1/2 Hartree   DENC   =    -79266.51148228
  -exchange  EXHF       =         0.00000000
  -V(xc)+E(xc)   XCENC  =       534.39614183
  PAW double counting   =     10909.34114156   -10745.31768692
  entropy T*S    EENTRO =         0.01049417
  eigenvalues    EBANDS =     -1685.29817664
  atomic energy  EATOM  =     15376.83878752
  ---------------------------------------------------
  free energy    TOTEN  =      -338.79913469 eV

  energy without entropy =     -338.80962886  energy(sigma->0) =     -338.80263275


--------------------------------------------------------------------------------------------------------




----------------------------------------- Iteration    1(   5)  ---------------------------------------


     EDDAV:  cpu time    0.61: real time    0.61
       DOS:  cpu time    0.00: real time    0.00
    CHARGE:  cpu time    0.03: real time    0.03
    MIXING:  cpu time    0.00: real time    0.00
    --------------------------------------------
      LOOP:  cpu time    0.64: real time    0.71

 eigenvalue-minimisations  :  1648
 total energy-change (2. order) :-0.2176648E+01  (-0.2136439E+01)
 number of electron     227.9999900 magnetization      -0.0478723
 augmentation part       65.1944946 magnetization       0.2596713

 Broyden mixing:
  rms(total) = 0.66020E+01    rms(broyden)= 0.65925E+01
  rms(prec ) = 0.69714E+01
  weight for this iteration     100.00

 Free energy of the ion-electron system (eV)
  ---------------------------------------------------
  alpha Z        PSCENC =       610.67547827
  Ewald energy   TEWEN  =     63927.06616780
  -1/2 Hartree   DENC   =    -79266.51148228
  -exchange  EXHF       =         0.00000000
  -V(xc)+E(xc)   XCENC  =       534.39614183
  PAW double counting   =     10909.34114156   -10745.31768692
  entropy T*S    EENTRO =         0.00886131
  eigenvalues    EBANDS =     -1687.47319164
  atomic energy  EATOM  =     15376.83878752
  ---------------------------------------------------
  free energy    TOTEN  =      -340.97578256 eV

  energy without entropy =     -340.98464386  energy(sigma->0) =     -340.97873632


--------------------------------------------------------------------------------------------------------




----------------------------------------- Iteration    1(   6)  ---------------------------------------


    POTLOK:  cpu time    0.04: real time    0.04
    SETDIJ:  cpu time    0.01: real time    0.01
     EDDAV:  cpu time    0.68: real time    0.68
       DOS:  cpu time    0.00: real time    0.00
    CHARGE:  cpu time    0.03: real time    0.03
    MIXING:  cpu time    0.00: real time    0.00
    --------------------------------------------
      LOOP:  cpu time    0.76: real time    0.94

 eigenvalue-minimisations  :  1904
 total energy-change (2. order) :-0.6203340E+02  (-0.1760162E+03)
 number of electron     227.9999339 magnetization      -0.0486063
 augmentation part       81.5573864 magnetization      -0.1398528

 Broyden mixing:
  rms(total) = 0.11960E+02    rms(broyden)= 0.11956E+02
  rms(prec ) = 0.18994E+02
  weight for this iteration     100.00

 eigenvalues of (default mixing * dielectric matrix)
  average eigenvalue GAMMA=   0.3084
  0.3084

 Free energy of the ion-electron system (eV)
  ---------------------------------------------------
  alpha Z        PSCENC =       610.67547827
  Ewald energy   TEWEN  =     63927.06616780
  -1/2 Hartree   DENC   =    -79382.30714526
  -exchange  EXHF       =         0.00000000
  -V(xc)+E(xc)   XCENC  =       561.83945910
  PAW double counting   =     11867.64388294   -11692.11776508
  entropy T*S    EENTRO =        -0.00125144
  eigenvalues    EBANDS =     -1672.64679446
  atomic energy  EATOM  =     15376.83878752
  ---------------------------------------------------
  free energy    TOTEN  =      -403.00918061 eV

  energy without entropy =     -403.00792916  energy(sigma->0) =     -403.00876346


--------------------------------------------------------------------------------------------------------




----------------------------------------- Iteration    1(   7)  ---------------------------------------


    POTLOK:  cpu time    0.04: real time    0.04
    SETDIJ:  cpu time    0.01: real time    0.01
     EDDAV:  cpu time    0.75: real time    0.75
       DOS:  cpu time    0.00: real time    0.00
    CHARGE:  cpu time    0.03: real time    0.03
    MIXING:  cpu time    0.00: real time    0.00
    --------------------------------------------
      LOOP:  cpu time    0.83: real time    0.89

 eigenvalue-minimisations  :  2128
 total energy-change (2. order) :-0.5299389E+03  (-0.8584885E+03)
 number of electron     227.9999476 magnetization      -0.0390146
 augmentation part       75.4085615 magnetization      -0.4927280

 Broyden mixing:
  rms(total) = 0.15988E+02    rms(broyden)= 0.15984E+02
  rms(prec ) = 0.30697E+02
  weight for this iteration     100.00

 eigenvalues of (default mixing * dielectric matrix)
  average eigenvalue GAMMA=   0.1954
  0.3200  0.0708

 Free energy of the ion-electron system (eV)
  ---------------------------------------------------
  alpha Z        PSCENC =       610.67547827
  Ewald energy   TEWEN  =     63927.06616780
  -1/2 Hartree   DENC   =    -79498.94370653
  -exchange  EXHF       =         0.00000000
  -V(xc)+E(xc)   XCENC  =       551.36370695
  PAW double counting   =     11935.55063440   -11785.17681628
  entropy T*S    EENTRO =         0.00063008
  eigenvalues    EBANDS =     -2050.32291484
  atomic energy  EATOM  =     15376.83878752
  ---------------------------------------------------
  free energy    TOTEN  =      -932.94803263 eV

  energy without entropy =     -932.94866271  energy(sigma->0) =     -932.94824266


--------------------------------------------------------------------------------------------------------




----------------------------------------- Iteration    1(   8)  ---------------------------------------


    POTLOK:  cpu time    0.04: real time    0.04
    SETDIJ:  cpu time    0.01: real time    0.01
     EDDAV:  cpu time    0.60: real time    0.60
       DOS:  cpu time    0.00: real time    0.00
    CHARGE:  cpu time    0.03: real time    0.03
    MIXING:  cpu time    0.00: real time    0.00
    --------------------------------------------
      LOOP:  cpu time    0.67: real time    0.74

 eigenvalue-minimisations  :  1608
 total energy-change (2. order) : 0.7130569E+03  (-0.3952240E+03)
 number of electron     227.9999603 magnetization      -0.0394117
 augmentation part       70.5838273 magnetization       0.1091240

 Broyden mixing:
  rms(total) = 0.75732E+01    rms(broyden)= 0.75701E+01
  rms(prec ) = 0.11811E+02
  weight for this iteration     100.00

 eigenvalues of (default mixing * dielectric matrix)
  average eigenvalue GAMMA=   0.1888
  0.2480  0.2095  0.1088

 Free energy of the ion-electron system (eV)
  ---------------------------------------------------
  alpha Z        PSCENC =       610.67547827
  Ewald energy   TEWEN  =     63927.06616780
  -1/2 Hartree   DENC   =    -79693.58301870
  -exchange  EXHF       =         0.00000000
  -V(xc)+E(xc)   XCENC  =       540.00567602
  PAW double counting   =     11977.95461159   -11853.10274716
  entropy T*S    EENTRO =        -0.00677975
  eigenvalues    EBANDS =     -1105.73934949
  atomic energy  EATOM  =     15376.83878752
  ---------------------------------------------------
  free energy    TOTEN  =      -219.89117390 eV

  energy without entropy =     -219.88439414  energy(sigma->0) =     -219.88891398


--------------------------------------------------------------------------------------------------------




----------------------------------------- Iteration    1(   9)  ---------------------------------------


    POTLOK:  cpu time    0.04: real time    0.04
    SETDIJ:  cpu time    0.01: real time    0.01
     EDDAV:  cpu time    0.63: real time    0.63
       DOS:  cpu time    0.00: real time    0.00
    CHARGE:  cpu time    0.03: real time    0.03
    MIXING:  cpu time    0.00: real time    0.00
    --------------------------------------------
      LOOP:  cpu time    0.71: real time    0.92

 eigenvalue-minimisations  :  1736
 total energy-change (2. order) :-0.2300516E+02  (-0.9023325E+02)
 number of electron     227.9999807 magnetization      -0.0645489
 augmentation part       65.4611394 magnetization       0.3491012

 Broyden mixing:
  rms(total) = 0.34268E+01    rms(broyden)= 0.34184E+01
  rms(prec ) = 0.40127E+01
  weight for this iteration     100.00

 eigenvalues of (default mixing * dielectric matrix)
  average eigenvalue GAMMA=   0.2842
  0.6914  0.2378  0.1038  0.1038

 Free energy of the ion-electron system (eV)
  ---------------------------------------------------
  alpha Z        PSCENC =       610.67547827
  Ewald energy   TEWEN  =     63927.06616780
  -1/2 Hartree   DENC   =    -79412.39392869
  -exchange  EXHF       =         0.00000000
  -V(xc)+E(xc)   XCENC  =       538.60373778
  PAW double counting   =     12004.33678841   -11882.63904096
  entropy T*S    EENTRO =         0.03541158
  eigenvalues    EBANDS =     -1405.41973509
  atomic energy  EATOM  =     15376.83878752
  ---------------------------------------------------
  free energy    TOTEN  =      -242.89633338 eV

  energy without entropy =     -242.93174496  energy(sigma->0) =     -242.90813724


--------------------------------------------------------------------------------------------------------




----------------------------------------- Iteration    1(  10)  ---------------------------------------


    POTLOK:  cpu time    0.04: real time    0.04
    SETDIJ:  cpu time    0.01: real time    0.01
     EDDAV:  cpu time    0.63: real time    0.63
       DOS:  cpu time    0.00: real time    0.00
    CHARGE:  cpu time    0.03: real time    0.03
    MIXING:  cpu time    0.00: real time    0.00
    --------------------------------------------
      LOOP:  cpu time    0.71: real time    0.78

 eigenvalue-minimisations  :  1736
 total energy-change (2. order) :-0.5934708E+01  (-0.1548112E+02)
 number of electron     227.9999827 magnetization      -0.0975456
 augmentation part       65.6392406 magnetization       0.7053113

 Broyden mixing:
  rms(total) = 0.28099E+01    rms(broyden)= 0.28082E+01
  rms(prec ) = 0.30031E+01
  weight for this iteration     100.00

 eigenvalues of (default mixing * dielectric matrix)
  average eigenvalue GAMMA=   0.2984
  0.6870  0.2979  0.2979  0.1046  0.1046

 Free energy of the ion-electron system (eV)
  ---------------------------------------------------
  alpha Z        PSCENC =       610.67547827
  Ewald energy   TEWEN  =     63927.06616780
  -1/2 Hartree   DENC   =    -79413.82318783
  -exchange  EXHF       =         0.00000000
  -V(xc)+E(xc)   XCENC  =       541.68230037
  PAW double counting   =     12165.53611964   -12044.03866838
  entropy T*S    EENTRO =        -0.00663204
  eigenvalues    EBANDS =     -1412.76140633
  atomic energy  EATOM  =     15376.83878752
  ---------------------------------------------------
  free energy    TOTEN  =      -248.83104097 eV

  energy without entropy =     -248.82440894  energy(sigma->0) =     -248.82883030


--------------------------------------------------------------------------------------------------------




----------------------------------------- Iteration    1(  11)  ---------------------------------------


    POTLOK:  cpu time    0.04: real time    0.04
    SETDIJ:  cpu time    0.01: real time    0.01
     EDDAV:  cpu time    0.63: real time    0.63
       DOS:  cpu time    0.00: real time    0.00
    CHARGE:  cpu time    0.03: real time    0.03
    MIXING:  cpu time    0.00: real time    0.00
    --------------------------------------------
      LOOP:  cpu time    0.71: real time    0.79

 eigenvalue-minimisations  :  1720
 total energy-change (2. order) : 0.2338496E-01  (-0.1185689E+01)
 number of electron     227.9999807 magnetization      -0.1503468
 augmentation part       65.7902022 magnetization       0.8028035

 Broyden mixing:
  rms(total) = 0.24498E+01    rms(broyden)= 0.24496E+01
  rms(prec ) = 0.27109E+01
  weight for this iteration     100.00

 eigenvalues of (default mixing * dielectric matrix)
  average eigenvalue GAMMA=   0.3216
  0.6436  0.4248  0.4248  0.2246  0.1059  0.1059

 Free energy of the ion-electron system (eV)
  ---------------------------------------------------
  alpha Z        PSCENC =       610.67547827
  Ewald energy   TEWEN  =     63927.06616780
  -1/2 Hartree   DENC   =    -79431.87500600
  -exchange  EXHF       =         0.00000000
  -V(xc)+E(xc)   XCENC  =       543.52190942
  PAW double counting   =     12249.65543013   -12127.63231440
  entropy T*S    EENTRO =        -0.04291870
  eigenvalues    EBANDS =     -1397.01519005
  atomic energy  EATOM  =     15376.83878752
  ---------------------------------------------------
  free energy    TOTEN  =      -248.80765601 eV

  energy without entropy =     -248.76473731  energy(sigma->0) =     -248.79334978


--------------------------------------------------------------------------------------------------------




----------------------------------------- Iteration    1(  12)  ---------------------------------------


    POTLOK:  cpu time    0.04: real time    0.04
    SETDIJ:  cpu time    0.01: real time    0.01
     EDDAV:  cpu time    0.67: real time    0.67
       DOS:  cpu time    0.00: real time    0.00
    CHARGE:  cpu time    0.03: real time    0.03
    MIXING:  cpu time    0.00: real time    0.00
    --------------------------------------------
      LOOP:  cpu time    0.75: real time    0.82

 eigenvalue-minimisations  :  1864
 total energy-change (2. order) : 0.9238595E+00  (-0.3859987E+00)
 number of electron     227.9999804 magnetization      -0.2452852
 augmentation part       66.0972829 magnetization       0.5901682

 Broyden mixing:
  rms(total) = 0.20903E+01    rms(broyden)= 0.20901E+01
  rms(prec ) = 0.23411E+01
  weight for this iteration     100.00

 eigenvalues of (default mixing * dielectric matrix)
  average eigenvalue GAMMA=   0.3834
  0.6948  0.6948  0.5710  0.1056  0.1056  0.2560  0.2560

 Free energy of the ion-electron system (eV)
  ---------------------------------------------------
  alpha Z        PSCENC =       610.67547827
  Ewald energy   TEWEN  =     63927.06616780
  -1/2 Hartree   DENC   =    -79426.91023821
  -exchange  EXHF       =         0.00000000
  -V(xc)+E(xc)   XCENC  =       545.02346630
  PAW double counting   =     12309.44848376   -12186.82578070
  entropy T*S    EENTRO =        -0.00167043
  eigenvalues    EBANDS =     -1403.19849085
  atomic energy  EATOM  =     15376.83878752
  ---------------------------------------------------
  free energy    TOTEN  =      -247.88379654 eV

  energy without entropy =     -247.88212612  energy(sigma->0) =     -247.88323973


--------------------------------------------------------------------------------------------------------




----------------------------------------- Iteration    1(  13)  ---------------------------------------


    POTLOK:  cpu time    0.04: real time    0.04
    SETDIJ:  cpu time    0.01: real time    0.01
     EDDAV:  cpu time    0.72: real time    0.72
       DOS:  cpu time    0.00: real time    0.00
    CHARGE:  cpu time    0.03: real time    0.03
    MIXING:  cpu time    0.00: real time    0.00
    --------------------------------------------
      LOOP:  cpu time    0.79: real time    0.87

 eigenvalue-minimisations  :  2008
 total energy-change (2. order) : 0.9249189E+00  (-0.3535048E+00)
 number of electron     227.9999760 magnetization      -0.3846000
 augmentation part       66.6987938 magnetization       1.0460107

 Broyden mixing:
  rms(total) = 0.15595E+01    rms(broyden)= 0.15587E+01
  rms(prec ) = 0.19325E+01
  weight for this iteration     100.00

 eigenvalues of (default mixing * dielectric matrix)
  average eigenvalue GAMMA=   0.4128
  0.8766  0.8766  0.5234  0.1057  0.1057  0.2367  0.2889  0.2889

 Free energy of the ion-electron system (eV)
  ---------------------------------------------------
  alpha Z        PSCENC =       610.67547827
  Ewald energy   TEWEN  =     63927.06616780
  -1/2 Hartree   DENC   =    -79445.24891650
  -exchange  EXHF       =         0.00000000
  -V(xc)+E(xc)   XCENC  =       548.14839649
  PAW double counting   =     12416.07339632   -12291.40531469
  entropy T*S    EENTRO =        -0.03700271
  eigenvalues    EBANDS =     -1389.06987019
  atomic energy  EATOM  =     15376.83878752
  ---------------------------------------------------
  free energy    TOTEN  =      -246.95887769 eV

  energy without entropy =     -246.92187498  energy(sigma->0) =     -246.94654345


--------------------------------------------------------------------------------------------------------




----------------------------------------- Iteration    1(  14)  ---------------------------------------


    POTLOK:  cpu time    0.04: real time    0.04
    SETDIJ:  cpu time    0.01: real time    0.01
     EDDAV:  cpu time    0.71: real time    0.71
       DOS:  cpu time    0.00: real time    0.00
    CHARGE:  cpu time    0.03: real time    0.03
    MIXING:  cpu time    0.00: real time    0.00
    --------------------------------------------
      LOOP:  cpu time    0.79: real time    0.86

 eigenvalue-minimisations  :  2000
 total energy-change (2. order) : 0.5350549E+00  (-0.2470741E+00)
 number of electron     227.9999744 magnetization      -0.5069562
 augmentation part       67.1961687 magnetization       0.9213818

 Broyden mixing:
  rms(total) = 0.12258E+01    rms(broyden)= 0.12252E+01
  rms(prec ) = 0.16998E+01
  weight for this iteration     100.00

 eigenvalues of (default mixing * dielectric matrix)
  average eigenvalue GAMMA=   0.4769
  1.0690  1.0690  0.4396  0.4396  0.5021  0.1057  0.1057  0.2805  0.2805

 Free energy of the ion-electron system (eV)
  ---------------------------------------------------
  alpha Z        PSCENC =       610.67547827
  Ewald energy   TEWEN  =     63927.06616780
  -1/2 Hartree   DENC   =    -79437.68312729
  -exchange  EXHF       =         0.00000000
  -V(xc)+E(xc)   XCENC  =       551.18140758
  PAW double counting   =     12496.21433942   -12369.72565364
  entropy T*S    EENTRO =        -0.01329272
  eigenvalues    EBANDS =     -1400.97792971
  atomic energy  EATOM  =     15376.83878752
  ---------------------------------------------------
  free energy    TOTEN  =      -246.42382276 eV

  energy without entropy =     -246.41053004  energy(sigma->0) =     -246.41939185


--------------------------------------------------------------------------------------------------------




----------------------------------------- Iteration    1(  15)  ---------------------------------------


    POTLOK:  cpu time    0.04: real time    0.04
    SETDIJ:  cpu time    0.01: real time    0.01
     EDDAV:  cpu time    0.71: real time    0.71
       DOS:  cpu time    0.00: real time    0.00
    CHARGE:  cpu time    0.03: real time    0.03
    MIXING:  cpu time    0.00: real time    0.00
    --------------------------------------------
      LOOP:  cpu time    0.78: real time    0.96

 eigenvalue-minimisations  :  1976
 total energy-change (2. order) : 0.4334874E+00  (-0.1164231E+00)
 number of electron     227.9999733 magnetization      -0.6070286
 augmentation part       67.4886221 magnetization       0.9673032

 Broyden mixing:
  rms(total) = 0.10547E+01    rms(broyden)= 0.10539E+01
  rms(prec ) = 0.14099E+01
  weight for this iteration     100.00

 eigenvalues of (default mixing * dielectric matrix)
  average eigenvalue GAMMA=   0.4776
  1.1798  1.1798  0.4805  0.4805  0.4994  0.1057  0.1057  0.2697  0.2697  0.2057

 Free energy of the ion-electron system (eV)
  ---------------------------------------------------
  alpha Z        PSCENC =       610.67547827
  Ewald energy   TEWEN  =     63927.06616780
  -1/2 Hartree   DENC   =    -79427.81336576
  -exchange  EXHF       =         0.00000000
  -V(xc)+E(xc)   XCENC  =       553.53712266
  PAW double counting   =     12549.92318432   -12422.12309280
  entropy T*S    EENTRO =        -0.00273937
  eigenvalues    EBANDS =     -1414.09187798
  atomic energy  EATOM  =     15376.83878752
  ---------------------------------------------------
  free energy    TOTEN  =      -245.99033535 eV

  energy without entropy =     -245.98759597  energy(sigma->0) =     -245.98942222


--------------------------------------------------------------------------------------------------------




----------------------------------------- Iteration    1(  16)  ---------------------------------------


    POTLOK:  cpu time    0.04: real time    0.04
    SETDIJ:  cpu time    0.01: real time    0.01
     EDDAV:  cpu time    0.66: real time    0.66
       DOS:  cpu time    0.00: real time    0.00
    CHARGE:  cpu time    0.03: real time    0.03
    MIXING:  cpu time    0.00: real time    0.00
    --------------------------------------------
      LOOP:  cpu time    0.74: real time    0.84

 eigenvalue-minimisations  :  1832
 total energy-change (2. order) : 0.5505911E+00  (-0.6375544E-01)
 number of electron     227.9999734 magnetization      -0.7394501
 augmentation part       67.5935053 magnetization       0.8340134

 Broyden mixing:
  rms(total) = 0.91296E+00    rms(broyden)= 0.91269E+00
  rms(prec ) = 0.12378E+01
  weight for this iteration     100.00

 eigenvalues of (default mixing * dielectric matrix)
  average eigenvalue GAMMA=   0.5461
  1.2640  1.2640  0.7135  0.7135  0.5079  0.1057  0.1057  0.3749  0.3749  0.2661
  0.3176

 Free energy of the ion-electron system (eV)
  ---------------------------------------------------
  alpha Z        PSCENC =       610.67547827
  Ewald energy   TEWEN  =     63927.06616780
  -1/2 Hartree   DENC   =    -79427.34998531
  -exchange  EXHF       =         0.00000000
  -V(xc)+E(xc)   XCENC  =       555.12014696
  PAW double counting   =     12582.39005626   -12454.00765169
  entropy T*S    EENTRO =        -0.00386198
  eigenvalues    EBANDS =     -1416.16888212
  atomic energy  EATOM  =     15376.83878752
  ---------------------------------------------------
  free energy    TOTEN  =      -245.43974429 eV

  energy without entropy =     -245.43588231  energy(sigma->0) =     -245.43845696


--------------------------------------------------------------------------------------------------------




----------------------------------------- Iteration    1(  17)  ---------------------------------------


    POTLOK:  cpu time    0.04: real time    0.04
    SETDIJ:  cpu time    0.01: real time    0.01
     EDDAV:  cpu time    0.69: real time    0.69
       DOS:  cpu time    0.00: real time    0.00
    CHARGE:  cpu time    0.03: real time    0.03
    MIXING:  cpu time    0.00: real time    0.00
    --------------------------------------------
      LOOP:  cpu time    0.77: real time    0.86

 eigenvalue-minimisations  :  1928
 total energy-change (2. order) : 0.6356026E+00  (-0.1134061E+00)
 number of electron     227.9999726 magnetization      -0.8451603
 augmentation part       67.8832207 magnetization       0.8210656

 Broyden mixing:
  rms(total) = 0.80533E+00    rms(broyden)= 0.80483E+00
  rms(prec ) = 0.10423E+01
  weight for this iteration     100.00

 eigenvalues of (default mixing * dielectric matrix)
  average eigenvalue GAMMA=   0.5731
  1.4315  1.4315  0.8127  0.8127  0.4321  0.4321  0.4707  0.1057  0.1057  0.2622
  0.2904  0.2904

 Free energy of the ion-electron system (eV)
  ---------------------------------------------------
  alpha Z        PSCENC =       610.67547827
  Ewald energy   TEWEN  =     63927.06616780
  -1/2 Hartree   DENC   =    -79430.37945774
  -exchange  EXHF       =         0.00000000
  -V(xc)+E(xc)   XCENC  =       557.04884516
  PAW double counting   =     12639.30198626   -12510.88029875
  entropy T*S    EENTRO =         0.00334214
  eigenvalues    EBANDS =     -1414.47899238
  atomic energy  EATOM  =     15376.83878752
  ---------------------------------------------------
  free energy    TOTEN  =      -244.80414172 eV

  energy without entropy =     -244.80748386  energy(sigma->0) =     -244.80525577


--------------------------------------------------------------------------------------------------------




----------------------------------------- Iteration    1(  18)  ---------------------------------------


    POTLOK:  cpu time    0.04: real time    0.04
    SETDIJ:  cpu time    0.01: real time    0.01
     EDDAV:  cpu time    0.66: real time    0.66
       DOS:  cpu time    0.00: real time    0.00
    CHARGE:  cpu time    0.03: real time    0.03
    MIXING:  cpu time    0.00: real time    0.00
    --------------------------------------------
      LOOP:  cpu time    0.73: real time    0.83

 eigenvalue-minimisations  :  1808
 total energy-change (2. order) : 0.5294878E+00  (-0.5747576E-01)
 number of electron     227.9999740 magnetization      -0.9433348
 augmentation part       67.8428344 magnetization       0.4626041

 Broyden mixing:
  rms(total) = 0.58065E+00    rms(broyden)= 0.58020E+00
  rms(prec ) = 0.75093E+00
  weight for this iteration     100.00

 eigenvalues of (default mixing * dielectric matrix)
  average eigenvalue GAMMA=   0.6002
  1.4622  1.4622  0.9715  0.9715  0.4840  0.4840  0.4962  0.1057  0.1057  0.3421
  0.3421  0.2665  0.3090

 Free energy of the ion-electron system (eV)
  ---------------------------------------------------
  alpha Z        PSCENC =       610.67547827
  Ewald energy   TEWEN  =     63927.06616780
  -1/2 Hartree   DENC   =    -79435.14932041
  -exchange  EXHF       =         0.00000000
  -V(xc)+E(xc)   XCENC  =       557.82072863
  PAW double counting   =     12662.46375340   -12534.55105910
  entropy T*S    EENTRO =         0.00577307
  eigenvalues    EBANDS =     -1409.44496305
  atomic energy  EATOM  =     15376.83878752
  ---------------------------------------------------
  free energy    TOTEN  =      -244.27465388 eV

  energy without entropy =     -244.28042695  energy(sigma->0) =     -244.27657823


--------------------------------------------------------------------------------------------------------




----------------------------------------- Iteration    1(  19)  ---------------------------------------


    POTLOK:  cpu time    0.04: real time    0.04
    SETDIJ:  cpu time    0.01: real time    0.01
     EDDAV:  cpu time    0.71: real time    0.71
       DOS:  cpu time    0.00: real time    0.00
    CHARGE:  cpu time    0.03: real time    0.03
    MIXING:  cpu time    0.00: real time    0.00
    --------------------------------------------
      LOOP:  cpu time    0.79: real time    0.86

 eigenvalue-minimisations  :  1944
 total energy-change (2. order) :-0.1456338E+00  (-0.4450693E-01)
 number of electron     227.9999747 magnetization      -1.0654028
 augmentation part       67.9110886 magnetization       0.1292182

 Broyden mixing:
  rms(total) = 0.44331E+00    rms(broyden)= 0.44295E+00
  rms(prec ) = 0.59547E+00
  weight for this iteration     100.00

 eigenvalues of (default mixing * dielectric matrix)
  average eigenvalue GAMMA=   0.6494
  1.5341  1.5341  1.2213  1.2213  0.5736  0.5736  0.1057  0.1057  0.4484  0.4484
  0.2654  0.3538  0.3538  0.3530

 Free energy of the ion-electron system (eV)
  ---------------------------------------------------
  alpha Z        PSCENC =       610.67547827
  Ewald energy   TEWEN  =     63927.06616780
  -1/2 Hartree   DENC   =    -79440.38699534
  -exchange  EXHF       =         0.00000000
  -V(xc)+E(xc)   XCENC  =       558.62500315
  PAW double counting   =     12699.35844137   -12571.47748124
  entropy T*S    EENTRO =         0.01076347
  eigenvalues    EBANDS =     -1405.13045264
  atomic energy  EATOM  =     15376.83878752
  ---------------------------------------------------
  free energy    TOTEN  =      -244.42028763 eV

  energy without entropy =     -244.43105111  energy(sigma->0) =     -244.42387546


--------------------------------------------------------------------------------------------------------




----------------------------------------- Iteration    1(  20)  ---------------------------------------


    POTLOK:  cpu time    0.04: real time    0.04
    SETDIJ:  cpu time    0.01: real time    0.01
     EDDAV:  cpu time    0.73: real time    0.73
       DOS:  cpu time    0.00: real time    0.00
    CHARGE:  cpu time    0.03: real time    0.03
    MIXING:  cpu time    0.00: real time    0.00
    --------------------------------------------
      LOOP:  cpu time    0.81: real time    0.89

 eigenvalue-minimisations  :  2016
 total energy-change (2. order) :-0.1393843E+00  (-0.6031482E-01)
 number of electron     227.9999743 magnetization      -1.1784163
 augmentation part       68.1396377 magnetization      -0.0278502

 Broyden mixing:
  rms(total) = 0.37096E+00    rms(broyden)= 0.37074E+00
  rms(prec ) = 0.53816E+00
  weight for this iteration     100.00

 eigenvalues of (default mixing * dielectric matrix)
  average eigenvalue GAMMA=   0.6700
  1.5579  1.5579  1.3627  1.3627  0.6508  0.6508  0.4873  0.4873  0.1057  0.1057
  0.4117  0.3566  0.3566  0.2656  0.3314

 Free energy of the ion-electron system (eV)
  ---------------------------------------------------
  alpha Z        PSCENC =       610.67547827
  Ewald energy   TEWEN  =     63927.06616780
  -1/2 Hartree   DENC   =    -79446.00364057
  -exchange  EXHF       =         0.00000000
  -V(xc)+E(xc)   XCENC  =       559.91235134
  PAW double counting   =     12760.19769550   -12632.62419662
  entropy T*S    EENTRO =         0.01307157
  eigenvalues    EBANDS =     -1400.63538673
  atomic energy  EATOM  =     15376.83878752
  ---------------------------------------------------
  free energy    TOTEN  =      -244.55967193 eV

  energy without entropy =     -244.57274350  energy(sigma->0) =     -244.56402912


--------------------------------------------------------------------------------------------------------




----------------------------------------- Iteration    1(  21)  ---------------------------------------


    POTLOK:  cpu time    0.04: real time    0.04
    SETDIJ:  cpu time    0.01: real time    0.01
     EDDAV:  cpu time    0.69: real time    0.69
       DOS:  cpu time    0.00: real time    0.00
    CHARGE:  cpu time    0.03: real time    0.03
    MIXING:  cpu time    0.00: real time    0.00
    --------------------------------------------
      LOOP:  cpu time    0.76: real time    0.83

 eigenvalue-minimisations  :  1904
 total energy-change (2. order) :-0.6240309E-02  (-0.4480579E-01)
 number of electron     227.9999743 magnetization      -1.2031045
 augmentation part       68.1804171 magnetization      -0.0257220

 Broyden mixing:
  rms(total) = 0.29637E+00    rms(broyden)= 0.29567E+00
  rms(prec ) = 0.34443E+00
  weight for this iteration     100.00

 eigenvalues of (default mixing * dielectric matrix)
  average eigenvalue GAMMA=   0.6548
  1.5580  1.5580  1.4079  1.4079  0.6662  0.6662  0.4920  0.4920  0.1057  0.1057
  0.3600  0.3600  0.4077  0.2655  0.3122  0.3122

 Free energy of the ion-electron system (eV)
  ---------------------------------------------------
  alpha Z        PSCENC =       610.67547827
  Ewald energy   TEWEN  =     63927.06616780
  -1/2 Hartree   DENC   =    -79453.08211602
  -exchange  EXHF       =         0.00000000
  -V(xc)+E(xc)   XCENC  =       560.50256889
  PAW double counting   =     12793.25512809   -12666.28874849
  entropy T*S    EENTRO =        -0.01501212
  eigenvalues    EBANDS =     -1393.51816618
  atomic energy  EATOM  =     15376.83878752
  ---------------------------------------------------
  free energy    TOTEN  =      -244.56591224 eV

  energy without entropy =     -244.55090012  energy(sigma->0) =     -244.56090820


--------------------------------------------------------------------------------------------------------




----------------------------------------- Iteration    1(  22)  ---------------------------------------


    POTLOK:  cpu time    0.04: real time    0.04
    SETDIJ:  cpu time    0.01: real time    0.01
     EDDAV:  cpu time    0.58: real time    0.58
       DOS:  cpu time    0.00: real time    0.00
    CHARGE:  cpu time    0.03: real time    0.03
    MIXING:  cpu time    0.00: real time    0.00
    --------------------------------------------
      LOOP:  cpu time    0.65: real time    0.73

 eigenvalue-minimisations  :  1544
 total energy-change (2. order) :-0.1618918E-01  (-0.1004966E-01)
 number of electron     227.9999745 magnetization      -1.2374840
 augmentation part       68.1575424 magnetization      -0.1057764

 Broyden mixing:
  rms(total) = 0.24879E+00    rms(broyden)= 0.24872E+00
  rms(prec ) = 0.30563E+00
  weight for this iteration     100.00

 eigenvalues of (default mixing * dielectric matrix)
  average eigenvalue GAMMA=   0.6756
  1.6372  1.6372  1.3971  1.3971  0.7564  0.7564  0.5230  0.5230  0.1057  0.1057
  0.4571  0.4571  0.4178  0.3582  0.3582  0.2656  0.3317

 Free energy of the ion-electron system (eV)
  ---------------------------------------------------
  alpha Z        PSCENC =       610.67547827
  Ewald energy   TEWEN  =     63927.06616780
  -1/2 Hartree   DENC   =    -79455.01143724
  -exchange  EXHF       =         0.00000000
  -V(xc)+E(xc)   XCENC  =       560.48180271
  PAW double counting   =     12796.75391887   -12669.90513982
  entropy T*S    EENTRO =        -0.00551859
  eigenvalues    EBANDS =     -1391.47616093
  atomic energy  EATOM  =     15376.83878752
  ---------------------------------------------------
  free energy    TOTEN  =      -244.58210142 eV

  energy without entropy =     -244.57658283  energy(sigma->0) =     -244.58026189


--------------------------------------------------------------------------------------------------------




----------------------------------------- Iteration    1(  23)  ---------------------------------------


    POTLOK:  cpu time    0.04: real time    0.04
    SETDIJ:  cpu time    0.01: real time    0.01
     EDDAV:  cpu time    0.67: real time    0.67
       DOS:  cpu time    0.00: real time    0.00
    CHARGE:  cpu time    0.03: real time    0.03
    MIXING:  cpu time    0.00: real time    0.00
    --------------------------------------------
      LOOP:  cpu time    0.75: real time    0.82

 eigenvalue-minimisations  :  1856
 total energy-change (2. order) :-0.3231315E-01  (-0.9294635E-02)
 number of electron     227.9999742 magnetization      -1.2453237
 augmentation part       68.1710554 magnetization      -0.0637035

 Broyden mixing:
  rms(total) = 0.29834E+00    rms(broyden)= 0.29792E+00
  rms(prec ) = 0.31314E+00
  weight for this iteration     100.00

 eigenvalues of (default mixing * dielectric matrix)
  average eigenvalue GAMMA=   0.6645
  1.7104  1.7104  1.3678  1.3678  0.8028  0.8028  0.5692  0.5692  0.4792  0.4792
  0.1057  0.1057  0.4115  0.3574  0.3574  0.2656  0.3320  0.1674

 Free energy of the ion-electron system (eV)
  ---------------------------------------------------
  alpha Z        PSCENC =       610.67547827
  Ewald energy   TEWEN  =     63927.06616780
  -1/2 Hartree   DENC   =    -79453.99958343
  -exchange  EXHF       =         0.00000000
  -V(xc)+E(xc)   XCENC  =       560.30606264
  PAW double counting   =     12802.38827188   -12675.82463173
  entropy T*S    EENTRO =        -0.00970743
  eigenvalues    EBANDS =     -1392.05526009
  atomic energy  EATOM  =     15376.83878752
  ---------------------------------------------------
  free energy    TOTEN  =      -244.61441457 eV

  energy without entropy =     -244.60470714  energy(sigma->0) =     -244.61117876


--------------------------------------------------------------------------------------------------------




----------------------------------------- Iteration    1(  24)  ---------------------------------------


    POTLOK:  cpu time    0.04: real time    0.04
    SETDIJ:  cpu time    0.01: real time    0.01
     EDDAV:  cpu time    0.60: real time    0.60
       DOS:  cpu time    0.00: real time    0.00
    CHARGE:  cpu time    0.03: real time    0.03
    MIXING:  cpu time    0.00: real time    0.00
    --------------------------------------------
      LOOP:  cpu time    0.67: real time    0.77

 eigenvalue-minimisations  :  1616
 total energy-change (2. order) : 0.4395825E-01  (-0.4247292E-02)
 number of electron     227.9999744 magnetization      -1.2568584
 augmentation part       68.1508711 magnetization      -0.0139911

 Broyden mixing:
  rms(total) = 0.25596E+00    rms(broyden)= 0.25589E+00
  rms(prec ) = 0.27175E+00
  weight for this iteration     100.00

 eigenvalues of (default mixing * dielectric matrix)
  average eigenvalue GAMMA=   0.6332
  1.7206  1.7206  1.3610  1.3610  0.8085  0.8085  0.5722  0.5722  0.4782  0.4782
  0.1057  0.1057  0.4119  0.3571  0.3571  0.2656  0.3317  0.1484  0.0673

 Free energy of the ion-electron system (eV)
  ---------------------------------------------------
  alpha Z        PSCENC =       610.67547827
  Ewald energy   TEWEN  =     63927.06616780
  -1/2 Hartree   DENC   =    -79455.39157695
  -exchange  EXHF       =         0.00000000
  -V(xc)+E(xc)   XCENC  =       560.21087342
  PAW double counting   =     12802.69946941   -12676.25718779
  entropy T*S    EENTRO =         0.00295526
  eigenvalues    EBANDS =     -1390.41542326
  atomic energy  EATOM  =     15376.83878752
  ---------------------------------------------------
  free energy    TOTEN  =      -244.57045632 eV

  energy without entropy =     -244.57341158  energy(sigma->0) =     -244.57144141


--------------------------------------------------------------------------------------------------------




----------------------------------------- Iteration    1(  25)  ---------------------------------------


    POTLOK:  cpu time    0.04: real time    0.04
    SETDIJ:  cpu time    0.01: real time    0.01
     EDDAV:  cpu time    0.63: real time    0.63
       DOS:  cpu time    0.00: real time    0.00
    CHARGE:  cpu time    0.03: real time    0.03
    MIXING:  cpu time    0.00: real time    0.00
    --------------------------------------------
      LOOP:  cpu time    0.70: real time    0.77

 eigenvalue-minimisations  :  1712
 total energy-change (2. order) : 0.7807985E-02  (-0.9749982E-03)
 number of electron     227.9999745 magnetization      -1.2761528
 augmentation part       68.1506479 magnetization      -0.0161000

 Broyden mixing:
  rms(total) = 0.24460E+00    rms(broyden)= 0.24458E+00
  rms(prec ) = 0.25901E+00
  weight for this iteration     100.00

 eigenvalues of (default mixing * dielectric matrix)
  average eigenvalue GAMMA=   0.6809
  1.7187  1.7187  1.3944  1.3944  1.0233  1.0233  0.6450  0.6450  0.4856  0.4856
  0.1057  0.1057  0.4718  0.4718  0.3613  0.3613  0.3966  0.3359  0.2656  0.2075

 Free energy of the ion-electron system (eV)
  ---------------------------------------------------
  alpha Z        PSCENC =       610.67547827
  Ewald energy   TEWEN  =     63927.06616780
  -1/2 Hartree   DENC   =    -79456.64029215
  -exchange  EXHF       =         0.00000000
  -V(xc)+E(xc)   XCENC  =       560.14683104
  PAW double counting   =     12804.23431352   -12677.90590902
  entropy T*S    EENTRO =         0.00642829
  eigenvalues    EBANDS =     -1388.98445360
  atomic energy  EATOM  =     15376.83878752
  ---------------------------------------------------
  free energy    TOTEN  =      -244.56264834 eV

  energy without entropy =     -244.56907662  energy(sigma->0) =     -244.56479110


--------------------------------------------------------------------------------------------------------




----------------------------------------- Iteration    1(  26)  ---------------------------------------


    POTLOK:  cpu time    0.04: real time    0.04
    SETDIJ:  cpu time    0.01: real time    0.01
     EDDAV:  cpu time    0.66: real time    0.66
       DOS:  cpu time    0.00: real time    0.00
    CHARGE:  cpu time    0.03: real time    0.03
    MIXING:  cpu time    0.00: real time    0.00
    --------------------------------------------
      LOOP:  cpu time    0.73: real time    0.81

 eigenvalue-minimisations  :  1808
 total energy-change (2. order) : 0.2047752E-01  (-0.1194596E-02)
 number of electron     227.9999746 magnetization      -1.2736309
 augmentation part       68.1346389 magnetization      -0.0073393

 Broyden mixing:
  rms(total) = 0.22816E+00    rms(broyden)= 0.22813E+00
  rms(prec ) = 0.24195E+00
  weight for this iteration     100.00

 eigenvalues of (default mixing * dielectric matrix)
  average eigenvalue GAMMA=   0.6804
  1.6974  1.6974  1.3932  1.3932  1.2196  1.2196  0.6722  0.6722  0.5058  0.5058
  0.1057  0.1057  0.4711  0.4711  0.4018  0.3602  0.3602  0.3322  0.2656  0.2193
  0.2193

 Free energy of the ion-electron system (eV)
  ---------------------------------------------------
  alpha Z        PSCENC =       610.67547827
  Ewald energy   TEWEN  =     63927.06616780
  -1/2 Hartree   DENC   =    -79457.31308038
  -exchange  EXHF       =         0.00000000
  -V(xc)+E(xc)   XCENC  =       560.09601454
  PAW double counting   =     12803.96698666   -12677.73188507
  entropy T*S    EENTRO =         0.01173616
  eigenvalues    EBANDS =     -1388.15237630
  atomic energy  EATOM  =     15376.83878752
  ---------------------------------------------------
  free energy    TOTEN  =      -244.54217081 eV

  energy without entropy =     -244.55390697  energy(sigma->0) =     -244.54608287


--------------------------------------------------------------------------------------------------------




----------------------------------------- Iteration    1(  27)  ---------------------------------------


    POTLOK:  cpu time    0.04: real time    0.04
    SETDIJ:  cpu time    0.01: real time    0.01
     EDDAV:  cpu time    0.49: real time    0.49
       DOS:  cpu time    0.00: real time    0.00
    CHARGE:  cpu time    0.03: real time    0.03
    MIXING:  cpu time    0.00: real time    0.00
    --------------------------------------------
      LOOP:  cpu time    0.56: real time    0.63

 eigenvalue-minimisations  :  1224
 total energy-change (2. order) :-0.8422253E-02  (-0.1366972E-03)
 number of electron     227.9999746 magnetization      -1.3390548
 augmentation part       68.1355423 magnetization      -0.0743151

 Broyden mixing:
  rms(total) = 0.22981E+00    rms(broyden)= 0.22981E+00
  rms(prec ) = 0.24378E+00
  weight for this iteration     100.00

 eigenvalues of (default mixing * dielectric matrix)
  average eigenvalue GAMMA=   0.7459
  2.0662  2.0662  1.3660  1.3660  1.4328  1.4328  0.7643  0.7643  0.5793  0.5793
  0.1057  0.1057  0.4726  0.4726  0.4511  0.4511  0.3639  0.3639  0.3862  0.3412
  0.2655  0.2135

 Free energy of the ion-electron system (eV)
  ---------------------------------------------------
  alpha Z        PSCENC =       610.67547827
  Ewald energy   TEWEN  =     63927.06616780
  -1/2 Hartree   DENC   =    -79457.24211051
  -exchange  EXHF       =         0.00000000
  -V(xc)+E(xc)   XCENC  =       560.09327691
  PAW double counting   =     12803.93870925   -12677.69679881
  entropy T*S    EENTRO =         0.01135114
  eigenvalues    EBANDS =     -1388.23545463
  atomic energy  EATOM  =     15376.83878752
  ---------------------------------------------------
  free energy    TOTEN  =      -244.55059307 eV

  energy without entropy =     -244.56194420  energy(sigma->0) =     -244.55437678


--------------------------------------------------------------------------------------------------------




----------------------------------------- Iteration    1(  28)  ---------------------------------------


    POTLOK:  cpu time    0.04: real time    0.04
    SETDIJ:  cpu time    0.01: real time    0.01
     EDDAV:  cpu time    0.67: real time    0.67
       DOS:  cpu time    0.00: real time    0.00
    CHARGE:  cpu time    0.03: real time    0.03
    MIXING:  cpu time    0.00: real time    0.00
    --------------------------------------------
      LOOP:  cpu time    0.75: real time    0.82

 eigenvalue-minimisations  :  1864
 total energy-change (2. order) : 0.8799137E-02  (-0.2563851E-02)
 number of electron     227.9999747 magnetization      -1.4806037
 augmentation part       68.1237403 magnetization      -0.2389567

 Broyden mixing:
  rms(total) = 0.20851E+00    rms(broyden)= 0.20845E+00
  rms(prec ) = 0.21917E+00
  weight for this iteration     100.00

 eigenvalues of (default mixing * dielectric matrix)
  average eigenvalue GAMMA=   0.7810
  2.2727  2.2727  1.5172  1.5172  1.3568  1.3568  0.9645  0.9645  0.6433  0.6433
  0.5101  0.5101  0.1057  0.1057  0.4836  0.4836  0.3637  0.3637  0.2655  0.3701
  0.3391  0.3391  0.2148

 Free energy of the ion-electron system (eV)
  ---------------------------------------------------
  alpha Z        PSCENC =       610.67547827
  Ewald energy   TEWEN  =     63927.06616780
  -1/2 Hartree   DENC   =    -79457.34586007
  -exchange  EXHF       =         0.00000000
  -V(xc)+E(xc)   XCENC  =       559.99395014
  PAW double counting   =     12805.39273061   -12679.18503273
  entropy T*S    EENTRO =         0.02266966
  eigenvalues    EBANDS =     -1388.00068512
  atomic energy  EATOM  =     15376.83878752
  ---------------------------------------------------
  free energy    TOTEN  =      -244.54179393 eV

  energy without entropy =     -244.56446359  energy(sigma->0) =     -244.54935048


--------------------------------------------------------------------------------------------------------




----------------------------------------- Iteration    1(  29)  ---------------------------------------


    POTLOK:  cpu time    0.04: real time    0.04
    SETDIJ:  cpu time    0.01: real time    0.01
     EDDAV:  cpu time    0.69: real time    0.69
       DOS:  cpu time    0.00: real time    0.00
    CHARGE:  cpu time    0.03: real time    0.03
    MIXING:  cpu time    0.00: real time    0.00
    --------------------------------------------
      LOOP:  cpu time    0.76: real time    0.83

 eigenvalue-minimisations  :  1912
 total energy-change (2. order) :-0.1208001E-01  (-0.6826077E-02)
 number of electron     227.9999748 magnetization      -1.5104604
 augmentation part       68.1149549 magnetization      -0.2332827

 Broyden mixing:
  rms(total) = 0.16446E+00    rms(broyden)= 0.16434E+00
  rms(prec ) = 0.17129E+00
  weight for this iteration     100.00

 eigenvalues of (default mixing * dielectric matrix)
  average eigenvalue GAMMA=   0.7620
  2.1533  2.1533  1.4286  1.4286  1.4294  1.4294  0.9719  0.9719  0.6627  0.6627
  0.5208  0.5208  0.1057  0.1057  0.4886  0.4886  0.5049  0.3629  0.3629  0.2655
  0.3403  0.3578  0.3578  0.2142

 Free energy of the ion-electron system (eV)
  ---------------------------------------------------
  alpha Z        PSCENC =       610.67547827
  Ewald energy   TEWEN  =     63927.06616780
  -1/2 Hartree   DENC   =    -79459.76359414
  -exchange  EXHF       =         0.00000000
  -V(xc)+E(xc)   XCENC  =       559.72803970
  PAW double counting   =     12810.86367320   -12685.00906520
  entropy T*S    EENTRO =         0.03255581
  eigenvalues    EBANDS =     -1384.98591689
  atomic energy  EATOM  =     15376.83878752
  ---------------------------------------------------
  free energy    TOTEN  =      -244.55387394 eV

  energy without entropy =     -244.58642975  energy(sigma->0) =     -244.56472588


--------------------------------------------------------------------------------------------------------




----------------------------------------- Iteration    1(  30)  ---------------------------------------


    POTLOK:  cpu time    0.04: real time    0.04
    SETDIJ:  cpu time    0.01: real time    0.01
     EDDAV:  cpu time    0.59: real time    0.59
       DOS:  cpu time    0.00: real time    0.00
    CHARGE:  cpu time    0.03: real time    0.03
    MIXING:  cpu time    0.00: real time    0.00
    --------------------------------------------
      LOOP:  cpu time    0.66: real time    0.73

 eigenvalue-minimisations  :  1576
 total energy-change (2. order) :-0.1183677E+00  (-0.3391814E-02)
 number of electron     227.9999748 magnetization      -1.5996140
 augmentation part       68.1019218 magnetization      -0.3224373

 Broyden mixing:
  rms(total) = 0.13635E+00    rms(broyden)= 0.13632E+00
  rms(prec ) = 0.14317E+00
  weight for this iteration     100.00

 eigenvalues of (default mixing * dielectric matrix)
  average eigenvalue GAMMA=   0.7895
  2.0766  1.9424  1.9424  1.7051  1.7051  1.1225  1.1225  0.7632  0.7632  0.8162
  0.6133  0.6133  0.1057  0.1057  0.5081  0.5081  0.5263  0.5263  0.3637  0.3637
  0.2655  0.3603  0.3603  0.3440  0.2144

 Free energy of the ion-electron system (eV)
  ---------------------------------------------------
  alpha Z        PSCENC =       610.67547827
  Ewald energy   TEWEN  =     63927.06616780
  -1/2 Hartree   DENC   =    -79460.88920730
  -exchange  EXHF       =         0.00000000
[...]
     12     -17.4148      1.00000
     13     -17.3910      1.00000
     14     -17.3523      1.00000
     15     -17.2420      1.00000
     16     -17.2220      1.00000
     17     -17.2202      1.00000
     18     -17.1447      1.00000
     19     -17.1130      1.00000
     20     -16.8258      1.00000
     21     -16.7185      1.00000
     22     -16.5285      1.00000
     23     -16.4602      1.00000
     24     -16.4220      1.00000
     25      -6.8560      1.00000
     26      -6.7044      1.00000
     27      -6.5178      1.00000
     28      -6.3317      1.00000
     29      -6.2890      1.00000
     30      -6.2743      1.00000
     31      -6.2553      1.00000
     32      -6.2472      1.00000
     33      -5.9630      1.00000
     34      -5.8748      1.00000
     35      -5.8542      1.00000
     36      -5.8037      1.00000
     37      -5.7468      1.00000
     38      -5.7011      1.00000
     39      -5.6115      1.00000
     40      -5.4827      1.00000
     41      -5.4743      1.00000
     42      -5.2695      1.00000
     43      -5.2386      1.00000
     44      -5.1939      1.00000
     45      -5.1791      1.00000
     46      -5.1183      1.00000
     47      -5.0925      1.00000
     48      -4.9934      1.00000
     49      -4.9735      1.00000
     50      -4.8792      1.00000
     51      -4.8785      1.00000
     52      -4.8528      1.00000
     53      -4.7900      1.00000
     54      -4.6996      1.00000
     55      -4.6140      1.00000
     56      -4.5724      1.00000
     57      -4.4616      1.00000
     58      -4.4552      1.00000
     59      -4.4028      1.00000
     60      -4.3526      1.00000
     61      -4.1575      1.00000
     62      -4.0446      1.00000
     63      -4.0351      1.00000
     64      -3.9092      1.00000
     65      -3.8694      1.00000
     66      -3.8243      1.00000
     67      -3.7957      1.00000
     68      -3.6924      1.00000
     69      -3.6442      1.00000
     70      -3.5861      1.00000
     71      -3.5108      1.00000
     72      -3.4960      1.00000
     73      -3.4281      1.00000
     74      -3.4208      1.00000
     75      -3.4152      1.00000
     76      -3.2888      1.00000
     77      -3.1210      1.00000
     78      -3.1130      1.00000
     79      -3.0234      1.00000
     80      -3.0087      1.00000
     81      -2.9129      1.00000
     82      -2.8652      1.00000
     83      -2.7990      1.00000
     84      -2.7702      1.00000
     85      -2.7625      1.00000
     86      -2.7072      1.00000
     87      -2.6747      1.00000
     88      -2.4993      1.00000
     89      -2.3635      1.00000
     90      -2.3315      1.00000
     91      -2.1061      1.00000
     92      -2.0759      1.00000
     93      -1.8953      1.00000
     94      -1.7824      1.00000
     95      -1.6975      1.00000
     96      -1.6454      1.00000
     97      -1.4389      1.00000
     98      -1.3105      1.00000
     99      -1.2535      1.00000
    100      -1.2062      1.00000
    101      -1.1428      1.00000
    102      -1.0800      1.00000
    103      -0.9721      1.00000
    104      -0.9268      1.00000
    105      -0.9160      1.00000
    106      -0.8954      1.00000
    107      -0.8233      1.00000
    108      -0.7774      1.00000
    109      -0.6554      1.00000
    110      -0.6553      1.00000
    111      -0.5031      1.00000
    112      -0.4949      1.00000
    113      -0.4103      1.00000
    114      -0.1846      1.00146
    115      -0.1677      1.00209
    116       0.0295      1.03258
    117       0.9217     -0.00006
    118       1.0643     -0.00000
    119       1.3538     -0.00000
    120       1.4040     -0.00000
    121       1.5630     -0.00000
    122       1.7261     -0.00000
    123       1.7929     -0.00000
    124       1.9671     -0.00000
    125       2.1093     -0.00000
    126       2.2025     -0.00000
    127       2.4723     -0.00000
    128       2.5557     -0.00000
    129       2.6412     -0.00000
    130       2.7969     -0.00000
    131       2.8355     -0.00000
    132       2.9421     -0.00000
    133       3.0927     -0.00000
    134       3.1013     -0.00000
    135       3.1712     -0.00000
    136       3.2136     -0.00000


--------------------------------------------------------------------------------------------------------


 soft charge-density along one line, spin component           1
         0         1         2         3         4         5         6         7         8         9
 total charge-density along one line
 
 soft charge-density along one line, spin component           2
         0         1         2         3         4         5         6         7         8         9
 total charge-density along one line
 
 pseudopotential strength for first ion, spin component:           1
 24.366   0.018   0.000  -0.059  -0.000   0.000  -0.011  -0.000
  0.018   0.025   0.000  -0.001   0.000   0.000  -0.000  -0.000
  0.000   0.000  -6.158   0.000  -0.000   0.010   0.000  -0.000
 -0.059  -0.001   0.000  -6.475   0.000   0.000  -0.035   0.000
 -0.000   0.000  -0.000   0.000  -6.417  -0.000   0.000  -0.028
  0.000   0.000   0.010   0.000  -0.000   0.201   0.000  -0.000
 -0.011  -0.000   0.000  -0.035   0.000   0.000   0.194   0.000
 -0.000  -0.000  -0.000   0.000  -0.028  -0.000   0.000   0.195
 pseudopotential strength for first ion, spin component:           2
 24.348   0.017   0.000  -0.028  -0.000   0.000  -0.005  -0.000
  0.017   0.025   0.000  -0.001  -0.000   0.000  -0.000  -0.000
  0.000   0.000  -6.161   0.000  -0.000   0.010   0.000  -0.000
 -0.028  -0.001   0.000  -6.469   0.000   0.000  -0.034   0.000
 -0.000  -0.000  -0.000   0.000  -6.308  -0.000   0.000  -0.010
  0.000   0.000   0.010   0.000  -0.000   0.201   0.000  -0.000
 -0.005  -0.000   0.000  -0.034   0.000   0.000   0.194   0.000
 -0.000  -0.000  -0.000   0.000  -0.010  -0.000   0.000   0.198
 total augmentation occupancy for first ion, spin component:           1
  1.819   0.580   0.000  -0.014   0.000   0.000  -0.019   0.000
  0.580   0.447   0.000   0.086   0.000   0.000  -0.086   0.000
  0.000   0.000   1.869   0.000   0.000  -0.586   0.000   0.000
 -0.014   0.086   0.000   1.655   0.000   0.000  -1.085   0.000
  0.000   0.000   0.000   0.000   1.724   0.000   0.000  -0.921
  0.000   0.000  -0.586   0.000   0.000   0.357   0.000   0.000
 -0.019  -0.086   0.000  -1.085   0.000   0.000   0.824   0.000
  0.000   0.000   0.000   0.000  -0.921   0.000   0.000   0.642
 total augmentation occupancy for first ion, spin component:           2
 -0.002   0.008   0.000   0.037   0.000   0.000  -0.010   0.000
  0.008  -0.039   0.000  -0.080   0.000   0.000   0.065   0.000
  0.000   0.000  -0.015   0.000   0.000  -0.015   0.000   0.000
  0.037  -0.080   0.000  -0.008   0.000   0.000  -0.011   0.000
  0.000   0.000   0.000   0.000   0.086   0.000   0.000   0.028
  0.000   0.000  -0.015   0.000   0.000  -0.004   0.000   0.000
 -0.010   0.065   0.000  -0.011   0.000   0.000  -0.004   0.000
  0.000   0.000   0.000   0.000   0.028   0.000   0.000  -0.057


------------------------ aborting loop because EDIFF is reached ----------------------------------------


    CHARGE:  cpu time    0.03: real time    0.03
    FORLOC:  cpu time    0.00: real time    0.00
    FORNL :  cpu time    0.19: real time    0.20
    STRESS:  cpu time    0.19: real time    0.19
    FORCOR:  cpu time    0.03: real time    0.03
    FORHAR:  cpu time    0.00: real time    0.00
    MIXING:  cpu time    0.00: real time    0.00

  FORCE on cell =-STRESS in cart. coord.  units (eV):
  Direction    XX          YY          ZZ          XY          YZ          ZX
  --------------------------------------------------------------------------------------
  Alpha Z   610.67548   610.67548   610.67548
  Ewald   68842.36333 67360.24885-77105.24166     0.00000     0.00000    -0.00000
  Hartree 72701.39506 72047.53694-70179.20837    -0.00000    -0.00000    -0.00000
  E(xc)   -1120.02862 -1119.45056 -1119.84236    -0.00000    -0.00000     0.00000
  Local  ************************142927.85956     0.00000     0.00000    -0.00000
  n-local   259.90556   257.22839   248.41069     0.00000     0.00000    -0.00000
  augment  1384.86261  1411.43954  1412.25093    -0.00000    -0.00000    -0.00000
  Kinetic  3113.82038  3206.32024  3212.53460    -0.00000    -0.00000    -0.00000
  Fock        0.00000     0.00000     0.00000     0.00000     0.00000     0.00000
  -------------------------------------------------------------------------------------
  Total      17.18940    18.80746     7.43886     0.00000     0.00000     0.00000
  in kB      53.39214    58.41803    23.10591     0.00000     0.00000     0.00000
  external pressure =       44.97 kB  Pullay stress =        0.00 kB


 VOLUME and BASIS-vectors are now :
 -----------------------------------------------------------------------------
  energy-cutoff  :      367.69
  volume of cell :      515.81
      direct lattice vectors                 reciprocal lattice vectors
     2.870000000  0.000000000  0.000000000     0.348432056  0.000000000  0.000000000
     0.000000000  6.250820000  0.000000000     0.000000000  0.159979011  0.000000000
     0.000000000  0.000000000 28.752460000     0.000000000  0.000000000  0.034779633

  length of vectors
     2.870000000  6.250820000 28.752460000     0.348432056  0.159979011  0.034779633


 FORCES acting on ions
    electron-ion (+dipol)            ewald-force                    non-local-force                 convergence-correction
 -----------------------------------------------------------------------------------------------
   -.122E-13 0.409E-12 0.893E+03   -.199E-14 0.112E-13 -.899E+03   -.813E-24 0.550E-22 0.624E+01   0.972E-14 -.433E-13 0.997E-02
   -.945E-14 0.987E-12 -.692E+03   0.164E-14 -.179E-13 0.685E+03   -.127E-22 0.298E-22 0.681E+01   0.144E-13 0.144E-13 0.729E-02
   -.801E-14 0.155E-12 -.215E+04   -.751E-14 -.318E-14 0.218E+04   0.111E-22 -.185E-23 -.274E+02   -.318E-14 0.347E-13 -.661E-02
   0.203E-12 0.783E+02 0.194E+04   0.237E-13 -.861E+02 -.195E+04   -.771E-22 0.776E+01 0.123E+02   -.299E-13 0.633E-03 -.762E-02
   0.216E-12 -.783E+02 0.194E+04   -.154E-13 0.861E+02 -.195E+04   -.209E-22 -.776E+01 0.123E+02   -.332E-13 -.633E-03 -.762E-02
   0.219E-12 0.348E+02 0.558E+03   0.567E-13 -.408E+02 -.558E+03   0.208E-22 0.555E+01 0.136E+00   -.249E-13 -.234E-03 0.965E-02
   0.226E-12 -.348E+02 0.558E+03   -.387E-13 0.408E+02 -.558E+03   0.306E-22 -.555E+01 0.136E+00   -.640E-14 0.234E-03 0.965E-02
   0.200E-12 0.376E+02 -.104E+04   0.482E-13 -.438E+02 0.104E+04   -.579E-23 0.566E+01 0.158E+00   -.136E-13 0.688E-03 0.431E-02
   0.196E-12 -.376E+02 -.104E+04   -.496E-13 0.438E+02 0.104E+04   -.101E-22 -.566E+01 0.158E+00   0.702E-14 -.688E-03 0.431E-02
   0.246E-14 -.518E-12 0.170E+04   0.756E-14 -.140E-13 -.170E+04   0.168E-22 -.107E-21 -.466E+01   -.264E-13 0.196E-13 0.225E-02
   0.109E-13 -.200E-12 0.209E+03   -.126E-13 0.112E-13 -.201E+03   -.763E-23 -.752E-22 -.778E+01   -.344E-13 0.180E-13 0.105E-01
   -.138E-13 0.846E-12 -.139E+04   -.974E-14 0.933E-14 0.140E+04   0.244E-22 -.652E-22 -.988E+01   -.453E-13 0.551E-13 0.905E-03
   0.113E-14 -.473E-12 0.170E+04   -.439E-14 -.463E-14 -.172E+04   0.258E-22 -.354E-22 0.206E+02   0.233E-13 -.384E-13 0.424E-03
   -.183E-13 -.396E-12 0.107E+03   0.422E-14 -.104E-13 -.115E+03   0.326E-22 -.419E-23 0.780E+01   0.971E-14 -.287E-13 0.111E-01
   -.736E-14 0.546E-13 -.149E+04   0.116E-13 -.119E-13 0.149E+04   -.118E-23 0.373E-23 0.358E+01   0.738E-14 -.319E-13 -.196E-02
   0.213E-12 0.490E+02 0.133E+04   -.257E-14 -.564E+02 -.133E+04   -.131E-22 0.748E+01 0.125E+01   -.285E-13 -.609E-03 0.513E-02
   0.209E-12 -.490E+02 0.133E+04   0.286E-14 0.564E+02 -.133E+04   -.455E-22 -.748E+01 0.125E+01   -.687E-14 0.609E-03 0.513E-02
   0.222E-12 0.377E+02 -.242E+03   0.490E-13 -.443E+02 0.242E+03   -.119E-22 0.618E+01 0.425E-01   -.257E-13 -.247E-04 0.109E-01
   0.212E-12 -.377E+02 -.242E+03   -.189E-13 0.443E+02 0.242E+03   -.306E-24 -.618E+01 0.425E-01   -.694E-14 0.247E-04 0.109E-01
   0.194E-12 0.432E+02 -.184E+04   0.510E-13 -.511E+02 0.184E+04   0.128E-22 0.763E+01 -.223E+00   -.406E-13 0.744E-03 -.429E-02
   0.209E-12 -.432E+02 -.184E+04   -.296E-13 0.511E+02 0.184E+04   -.213E-22 -.763E+01 -.223E+00   -.625E-14 -.744E-03 -.429E-02
   0.124E-14 -.673E-12 0.997E+03   0.173E-13 -.182E-14 -.991E+03   -.470E-22 0.485E-23 -.619E+01   -.183E-13 -.170E-14 0.107E-01
   -.467E-14 0.659E-12 -.590E+03   0.111E-13 0.412E-14 0.598E+03   -.458E-22 0.155E-23 -.847E+01   -.841E-14 -.354E-14 0.954E-02
   0.244E-15 -.400E-12 -.220E+04   0.626E-14 0.269E-14 0.224E+04   0.564E-22 0.951E-23 -.337E+02   -.358E-13 -.149E-13 -.686E-02
   -.191E-13 0.251E-12 0.152E+04   0.143E-14 -.129E-14 -.152E+04   -.253E-23 -.380E-24 0.197E-01   0.369E-15 0.249E-13 0.698E-02
   0.199E-16 0.377E-14 -.282E+03   -.196E-13 0.247E-13 0.282E+03   -.829E-23 0.581E-24 0.777E-01   -.565E-14 0.986E-14 0.124E-01
   0.974E-14 -.313E-12 -.214E+04   -.181E-13 0.252E-13 0.214E+04   0.200E-23 0.265E-22 0.120E+01   -.103E-13 0.355E-13 -.406E-02
   0.107E-12 -.398E-12 0.225E+04   -.105E-13 -.399E-13 -.224E+04   0.389E-22 0.493E-23 -.343E+01   0.176E-13 -.134E-13 -.527E-02
   0.113E-12 0.174E-12 0.647E+03   -.109E-13 -.282E-14 -.647E+03   0.105E-22 0.279E-22 -.576E-01   -.794E-14 -.255E-14 0.114E-01
   0.115E-12 0.192E-12 -.121E+04   0.372E-14 -.233E-14 0.121E+04   0.267E-23 -.184E-23 0.174E-01   0.562E-14 0.445E-13 0.491E-02
   -.124E-13 -.143E-11 0.217E+04   -.645E-14 0.415E-14 -.217E+04   0.320E-22 -.297E-21 -.277E-01   0.401E-14 -.875E-13 0.477E-02
   -.142E-13 0.124E-12 0.657E+03   -.114E-13 0.327E-13 -.657E+03   -.267E-23 -.634E-24 -.222E+00   0.905E-14 -.234E-13 0.107E-01
   -.336E-14 0.197E-12 -.122E+04   -.182E-13 0.258E-13 0.122E+04   -.358E-24 0.387E-23 0.638E-01   -.111E-13 -.478E-13 0.489E-02
   0.124E-12 0.487E-12 0.158E+04   0.150E-14 0.328E-13 -.158E+04   0.186E-23 0.166E-23 0.266E+00   -.869E-14 -.183E-13 0.727E-02
   0.122E-12 0.342E-12 -.282E+03   0.155E-13 0.113E-14 0.282E+03   -.336E-23 -.396E-23 0.822E-02   -.195E-13 0.585E-14 0.129E-01
   0.136E-12 0.265E-12 -.216E+04   0.953E-14 0.884E-15 0.216E+04   -.483E-22 -.778E-22 -.202E+00   -.179E-13 -.121E-13 -.668E-02
 -----------------------------------------------------------------------------------------------
   0.314E-11 -.401E-11 0.279E+02   0.367E-13 -.290E-13 0.909E-12   -.673E-22 -.300E-21 -.280E+02   -.367E-12 -.313E-13 0.144E+00
 
 
 POSITION                                       TOTAL-FORCE (eV/Angst)
 -----------------------------------------------------------------------------------
      0.00000      3.12541     10.01744         0.000000     -0.000000     -0.078239
      0.00000      3.12541     16.28136         0.000000     -0.000000     -0.222204
      0.00000      3.12541     22.53217         0.000000     -0.000000     -0.785917
      1.43500      4.96982      4.25270         0.000000      0.003687     -0.004496
      1.43500      1.28100      4.25270        -0.000000     -0.003687     -0.004496
      1.43500      5.03053     11.25082         0.000000     -0.487808      0.000814
      1.43500      1.22029     11.25082         0.000000      0.487808      0.000814
      1.43500      5.03053     17.50164        -0.000000     -0.517480     -0.041345
      1.43500      1.22029     17.50164        -0.000000      0.517480     -0.041345
     -0.00000      3.12541      6.19323        -0.000000     -0.000000     -0.018252
      0.00000      3.12541     12.47110         0.000000     -0.000000     -0.102436
      0.00000      3.12541     18.72193         0.000000     -0.000000     -0.496405
     -0.00000     -0.00000      6.78107         0.000000     -0.000000      0.035914
      0.00000      0.00000     13.15594        -0.000000     -0.000000      0.009813
      0.00000      0.00000     19.40677         0.000000     -0.000000     -0.849242
      1.43500      1.90065      8.07018        -0.000000      0.000025      0.010789
      1.43500      4.35017      8.07018        -0.000000     -0.000025      0.010789
      1.43500      1.90512     14.37623         0.000000     -0.385533     -0.025343
      1.43500      4.34570     14.37623        -0.000000      0.385533     -0.025343
      1.43500      1.90512     20.62705        -0.000000     -0.214050      0.046157
      1.43500      4.34570     20.62705         0.000000      0.214050      0.046157
     -0.00000     -0.00000      9.30835         0.000000     -0.000000     -0.043133
      0.00000      0.00000     15.59652         0.000000     -0.000000     -0.185342
      0.00000      0.00000     21.84734         0.000000     -0.000000     -0.112131
     -0.00000      3.12541      8.12682        -0.000000     -0.000000     -0.025169
      0.00000      3.12541     14.37623         0.000000     -0.000000      0.200554
      0.00000      3.12541     20.62705         0.000000     -0.000000      1.868580
      1.43500      3.12541      5.01047        -0.000000     -0.000000      0.034441
      1.43500      3.12541     11.25082        -0.000000     -0.000000     -0.029582
      1.43500      3.12541     17.50164        -0.000000     -0.000000      0.082720
     -0.00000     -0.00000      4.47779        -0.000000     -0.000000     -0.019430
      0.00000      0.00000     11.25082         0.000000     -0.000000     -0.885871
      0.00000      0.00000     17.50164        -0.000000     -0.000000      0.555222
      1.43500     -0.00000      8.01781         0.000000     -0.000000      0.060901
      1.43500      0.00000     14.37623        -0.000000     -0.000000      0.077862
      1.43500      0.00000     20.62705         0.000000     -0.000000      0.954196
 -----------------------------------------------------------------------------------
    total drift:                                0.000000     -0.000000     -0.000065


--------------------------------------------------------------------------------------------------------



  FREE ENERGIE OF THE ION-ELECTRON SYSTEM (eV)
  ---------------------------------------------------
  free  energy   TOTEN  =      -246.73438539 eV

  energy  without entropy=     -246.75721606  energy(sigma->0) =     -246.74199561
 
 d Force = 0.2155763E-03[-0.809E-05, 0.439E-03]  d Energy = 0.7257248E-03-0.510E-03
 d Force = 0.3047898E+02[ 0.305E+02, 0.305E+02]  d Ewald  = 0.3047897E+02 0.536E-05


--------------------------------------------------------------------------------------------------------


    POTLOK:  cpu time    0.04: real time    0.04


--------------------------------------------------------------------------------------------------------




--------------------------------------------------------------------------------------------------------


  
 reached required accuracy - stopping structural energy minimisation
     LOOP+:  cpu time    5.75: real time    7.40
    4ORBIT:  cpu time    0.00: real time    0.00

 total amount of memory used by VASP on root node    35314. kBytes
========================================================================

   base      :      30000. kBytes
   nonl-proj :       1179. kBytes
   fftplans  :        772. kBytes
   grid      :       2025. kBytes
   one-center:        155. kBytes
   wavefun   :       1183. kBytes
 
  
  
 General timing and accounting informations for this job:
 ========================================================
  
                  Total CPU time used (sec):      269.477
                            User time (sec):      268.090
                          System time (sec):        1.387
                         Elapsed time (sec):      331.156
  
                   Maximum memory used (kb):       91628.
                   Average memory used (kb):           0.
  
                          Minor page faults:        90732
                          Major page faults:            0
                 Voluntary context switches:        19161
