 vasp.5.3.3 18Dez12 (build May 12 2016 12:04:25) complex                        
  
 executed on             LinuxIFC date 2017.03.09  13:10:21
 running on   32 total cores
 distrk:  each k-point on   32 cores,    1 groups
 distr:  one band on NCORES_PER_BAND=   4 cores,    8 groups


--------------------------------------------------------------------------------------------------------


 INCAR:
 POTCAR:    PAW_PBE Mn 06Sep2000                  
 POTCAR:    PAW_PBE O 08Apr2002                   
 POTCAR:    PAW_PBE Li 17Jan2003                  
 POTCAR:    PAW_PBE Mn 06Sep2000                  
  local pseudopotential read in
  partial core-charges read in
  partial kinetic energy density read in
  atomic valenz-charges read in
  non local Contribution for L=           2  read in
    real space projection operators read in
  non local Contribution for L=           2  read in
    real space projection operators read in
  non local Contribution for L=           0  read in
    real space projection operators read in
  non local Contribution for L=           0  read in
    real space projection operators read in
  non local Contribution for L=           1  read in
    real space projection operators read in
  non local Contribution for L=           1  read in
    real space projection operators read in
    PAW grid and wavefunctions read in
 
   number of l-projection  operators is LMAX  =           6
   number of lm-projection operators is LMMAX =          18
 
 POTCAR:    PAW_PBE O 08Apr2002                   
  local pseudopotential read in
  partial core-charges read in
  partial kinetic energy density read in
  kinetic energy density of atom read in
  atomic valenz-charges read in
  non local Contribution for L=           0  read in
    real space projection operators read in
  non local Contribution for L=           0  read in
    real space projection operators read in
  non local Contribution for L=           1  read in
    real space projection operators read in
  non local Contribution for L=           1  read in
    real space projection operators read in
    PAW grid and wavefunctions read in
 
   number of l-projection  operators is LMAX  =           4
   number of lm-projection operators is LMMAX =           8
 
 POTCAR:    PAW_PBE Li 17Jan2003                  
  local pseudopotential read in
  partial core-charges read in
  partial kinetic energy density read in
  atomic valenz-charges read in
  non local Contribution for L=           0  read in
    real space projection operators read in
  non local Contribution for L=           0  read in
    real space projection operators read in
  non local Contribution for L=           1  read in
    real space projection operators read in
    PAW grid and wavefunctions read in
 
   number of l-projection  operators is LMAX  =           3
   number of lm-projection operators is LMMAX =           5
 

 ----------------------------------------------------------------------------- 
|                                                                             |
|  ADVICE TO THIS USER RUNNING 'VASP/VAMP'   (HEAR YOUR MASTER'S VOICE ...):  |
|                                                                             |
|      You have a (more or less) 'large supercell' and for larger cells       |
|      it might be more efficient to use real space projection opertators     |
|      So try LREAL= Auto  in the INCAR   file.                               |
|      Mind: At the moment your POTCAR file does not contain real space       |
|       projectors, and has to be modified,  BUT if you                       |
|      want to do an extremely  accurate calculation you might also keep the  |
|      reciprocal projection scheme          (i.e. LREAL=.FALSE.)             |
|                                                                             |
 ----------------------------------------------------------------------------- 

  PAW_PBE Mn 06Sep2000                  :
 energy of atom  1       EATOM= -416.7541
 kinetic energy error for atom=    0.0024 (will be added to EATOM!!)
  PAW_PBE O 08Apr2002                   :
 energy of atom  2       EATOM= -432.3788
 kinetic energy error for atom=    0.0208 (will be added to EATOM!!)
  PAW_PBE Li 17Jan2003                  :
 energy of atom  3       EATOM=   -5.3001
 kinetic energy error for atom=    0.0000 (will be added to EATOM!!)
 
 
 POSCAR:                                         
  positions in direct lattice
  velocities in cartesian coordinates
 exchange correlation table for  LEXCH =        8
   RHO(1)=    0.500       N(1)  =     2000
   RHO(2)=  100.500       N(2)  =     4000
 


--------------------------------------------------------------------------------------------------------


 ion  position               nearest neighbor table
   1  0.250  0.140  0.649-  24 1.94  24 1.94  34 1.96  34 1.96  13 2.19  37 2.61  38 2.67
   2  0.250  0.156  0.314-  35 1.92  35 1.92  22 1.97  22 1.97  14 2.17  28 2.56  37 2.62  44 2.96
                            44 2.96   7 3.13   7 3.13
   3  0.250  0.100  0.984-  23 1.94  23 1.94  36 1.96  36 1.96  29 2.29  15 2.46  38 2.59  42 2.90
                            42 2.90  45 2.92  45 2.92
   4  0.250  0.636  0.518-  31 1.92  31 1.92  19 1.93  19 1.93  16 1.99  25 2.00  39 2.62  41 3.09
                            41 3.09  10 3.11  10 3.11
   5  0.250  0.639  0.184-  20 1.96  20 1.96  32 1.96  32 1.96  17 2.13  39 2.55  40 2.56
   6  0.250  0.613  0.855-  21 1.91  21 1.91  33 1.94  33 1.94  18 1.96  27 2.01  40 2.65  46 2.87
                            46 2.87  43 3.05  43 3.05  12 3.13  12 3.13
   7  0.750  0.892  0.331-  17 1.92  17 1.92  28 1.98  28 1.98  35 2.17  41 2.56  39 3.01  39 3.01
                             2 3.13   2 3.13
   8  0.750  0.828  0.016-  29 1.93  29 1.93  18 1.97  18 1.97  20 2.16  42 2.77  43 2.78  40 3.04
                            40 3.04
   9  0.750  0.863  0.667-  30 1.93  30 1.93  16 1.94  16 1.94  34 2.38  41 2.67  43 2.67
  10  0.750  0.373  0.499-  13 1.91  13 1.91  25 2.00  25 2.00  22 2.22  31 2.31  44 2.81  37 3.01
                            37 3.01   4 3.11   4 3.11
  11  0.750  0.354  0.154-  14 1.93  14 1.93  26 1.95  26 1.95  23 2.36  45 2.52  44 2.60
  12  0.750  0.350  0.821-  15 1.93  15 1.93  27 2.00  27 2.00  24 2.14  33 2.39  45 2.62  46 2.81
                            38 3.04  38 3.04   6 3.13   6 3.13
  13  0.250  0.287  0.554-  10 1.91  10 1.91  37 2.03   1 2.19
  14  0.250  0.318  0.233-  11 1.93  11 1.93  44 2.14  44 2.14   2 2.17
  15  0.250  0.280  0.888-  12 1.93  12 1.93  38 2.18  45 2.22  45 2.22   3 2.46
  16  0.250  0.798  0.592-   9 1.94   9 1.94   4 1.99  41 2.32  41 2.32
  17  0.250  0.796  0.278-   7 1.92   7 1.92  39 2.00   5 2.13
  18  0.250  0.762  0.938-   6 1.96   8 1.97   8 1.97  43 2.40  43 2.40  40 2.44
  19  0.750  0.701  0.450-   4 1.93   4 1.93  41 2.11  39 2.18  39 2.18
  20  0.750  0.672  0.103-   5 1.96   5 1.96  40 2.14  40 2.14   8 2.16
  21  0.750  0.682  0.791-   6 1.91   6 1.91  46 1.99  43 2.05
  22  0.750  0.231  0.388-   2 1.97   2 1.97  44 2.14  10 2.22  37 2.37  37 2.37
  23  0.750  0.175  0.054-   3 1.94   3 1.94  42 2.04  45 2.07  11 2.36
  24  0.750  0.191  0.728-   1 1.94   1 1.94  12 2.14  38 2.27  38 2.27
  25  0.250  0.474  0.444-   4 2.00  10 2.00  10 2.00  39 2.35  44 2.47  44 2.47
  26  0.250  0.415  0.081-  40 1.91  11 1.95  11 1.95  45 2.11  45 2.11
  27  0.250  0.458  0.773-  12 2.00  12 2.00   6 2.01  46 2.05  46 2.05
  28  0.250  0.961  0.408-  37 1.96   7 1.98   7 1.98  41 2.13  41 2.13   2 2.56
  29  0.250  0.927  0.069-   8 1.93   8 1.93  42 2.07  42 2.07   3 2.29
  30  0.250  0.924  0.742-   9 1.93   9 1.93  38 2.06  43 2.19  43 2.19
  31  0.750  0.564  0.581-  46 1.86   4 1.92   4 1.92  10 2.31
  32  0.750  0.564  0.252-   5 1.96   5 1.96  44 2.03  39 2.20  39 2.20
  33  0.750  0.535  0.918-   6 1.94   6 1.94  40 2.18  40 2.18  45 2.34  12 2.39
  34  0.750  0.050  0.585-   1 1.96   1 1.96  41 2.06  37 2.31  37 2.31   9 2.38
  35  0.750  0.063  0.257-  42 1.85   2 1.92   2 1.92   7 2.17
  36  0.750  0.028  0.911-  43 1.95   3 1.96   3 1.96  38 2.17  38 2.17
  37  0.250  0.120  0.481-  28 1.96  13 2.03  34 2.31  34 2.31  22 2.37  22 2.37   1 2.61   2 2.62
                            41 2.78  41 2.78  10 3.01  10 3.01
  38  0.250  0.093  0.817-  30 2.06  36 2.17  36 2.17  15 2.18  24 2.27  24 2.27   3 2.59   1 2.67
                            43 2.79  43 2.79  12 3.04  12 3.04
  39  0.250  0.642  0.349-  17 2.00  19 2.18  19 2.18  32 2.20  32 2.20  25 2.35   5 2.55   4 2.62
                            44 2.88  44 2.88   7 3.01   7 3.01
  40  0.250  0.571  0.023-  26 1.91  20 2.14  20 2.14  33 2.18  33 2.18  18 2.44   5 2.56   6 2.65
                            45 2.80  45 2.80   8 3.04   8 3.04
  41  0.750  0.895  0.497-  34 2.06  19 2.11  28 2.13  28 2.13  16 2.32  16 2.32   7 2.56   9 2.67
                            37 2.78  37 2.78   4 3.09   4 3.09
  42  0.750  0.031  0.138-  35 1.85  23 2.04  29 2.07  29 2.07   8 2.77   3 2.90   3 2.90
  43  0.750  0.868  0.840-  36 1.95  21 2.05  30 2.19  30 2.19  18 2.40  18 2.40   9 2.67   8 2.78
                            38 2.79  38 2.79   6 3.05   6 3.05
  44  0.750  0.404  0.320-  32 2.03  22 2.14  14 2.14  14 2.14  25 2.47  25 2.47  11 2.60  10 2.81
                            39 2.88  39 2.88   2 2.96   2 2.96
  45  0.750  0.344  0.991-  23 2.07  26 2.11  26 2.11  15 2.22  15 2.22  33 2.34  11 2.52  12 2.62
                            40 2.80  40 2.80   3 2.92   3 2.92
  46  0.750  0.540  0.700-  31 1.86  21 1.99  27 2.05  27 2.05  12 2.81   6 2.87   6 2.87
 
  LATTYP: Found a simple monoclinic cell.
 ALAT       =    18.2011337194
 B/A-ratio  =     0.1577837109
 C/A-ratio  =     1.3918849064
 COS(beta)  =    -0.9367342043
  
  Lattice vectors:
  
 A1 = ( -10.0364967131,   0.0000000000,  15.1838731028)
 A2 = (   0.0000000000,  -2.8718424212,   0.0000000000)
 A3 = (  20.4836951297,   0.0000000000, -14.9071753535)


Analysis of symmetry for initial positions (statically):
=====================================================================
 Subroutine PRICEL returns:
 Original cell was already a primitive cell.
 

 Routine SETGRP: Setting up the symmetry group for a 
 simple monoclinic supercell.


 Subroutine GETGRP returns: Found  2 space group operations
 (whereof  1 operations were pure point group operations)
 out of a pool of  4 trial point group operations.


The static configuration has the point symmetry C_1 .
 The point group associated with its full space group is C_1h.


Analysis of symmetry for dynamics (positions and initial velocities):
=====================================================================
 Subroutine PRICEL returns:
 Original cell was already a primitive cell.
 

 Routine SETGRP: Setting up the symmetry group for a 
 simple monoclinic supercell.


 Subroutine GETGRP returns: Found  2 space group operations
 (whereof  1 operations were pure point group operations)
 out of a pool of  4 trial point group operations.


The dynamic configuration has the point symmetry C_1 .
 The point group associated with its full space group is C_1h.


Analysis of magnetic symmetry:
=====================================================================

 Subroutine MAGSYM returns: Found  2 space group operations
 (whereof  1 operations were pure point group operations)
 out of a pool of  2 trial space group operations
 (whereof  1 operations were pure point group operations)
 and found also     1 'primitive' translations


The magnetic configuration has the point symmetry C_1 .
 The point group associated with its full space group is C_1h.


 irot  :   1
 --------------------------------------------------------------------
 isymop:   1   0   0
           0   1   0
           0   0   1

 gtrans:     0.0000000     0.0000000     0.0000000

 ptrans:     0.0000000     0.0000000     0.0000000
 rotmap:
 (   1->   1)  (   2->   2)  (   3->   3)  (   4->   4)  (   5->   5) 
 (   6->   6)  (   7->   7)  (   8->   8)  (   9->   9)  (  10->  10) 
 (  11->  11)  (  12->  12)  (  13->  13)  (  14->  14)  (  15->  15) 
 (  16->  16)  (  17->  17)  (  18->  18)  (  19->  19)  (  20->  20) 
 (  21->  21)  (  22->  22)  (  23->  23)  (  24->  24)  (  25->  25) 
 (  26->  26)  (  27->  27)  (  28->  28)  (  29->  29)  (  30->  30) 
 (  31->  31)  (  32->  32)  (  33->  33)  (  34->  34)  (  35->  35) 
 (  36->  36)  (  37->  37)  (  38->  38)  (  39->  39)  (  40->  40) 
 (  41->  41)  (  42->  42)  (  43->  43)  (  44->  44)  (  45->  45) 
 (  46->  46) 


 irot  :   2
 --------------------------------------------------------------------
 isymop:  -1   0   0
           0   1   0
           0   0   1

 gtrans:    -0.5000000     0.0000000     0.0000000

 ptrans:     0.0000000     0.0000000     0.0000000
 rotmap:
 (   1->   1)  (   2->   2)  (   3->   3)  (   4->   4)  (   5->   5) 
 (   6->   6)  (   7->   7)  (   8->   8)  (   9->   9)  (  10->  10) 
 (  11->  11)  (  12->  12)  (  13->  13)  (  14->  14)  (  15->  15) 
 (  16->  16)  (  17->  17)  (  18->  18)  (  19->  19)  (  20->  20) 
 (  21->  21)  (  22->  22)  (  23->  23)  (  24->  24)  (  25->  25) 
 (  26->  26)  (  27->  27)  (  28->  28)  (  29->  29)  (  30->  30) 
 (  31->  31)  (  32->  32)  (  33->  33)  (  34->  34)  (  35->  35) 
 (  36->  36)  (  37->  37)  (  38->  38)  (  39->  39)  (  40->  40) 
 (  41->  41)  (  42->  42)  (  43->  43)  (  44->  44)  (  45->  45) 
 (  46->  46) 
 
 
 KPOINTS: Automatic mesh                          

Automatic generation of k-mesh.
Space group operators:
 irot       det(A)        alpha          n_x          n_y          n_z        tau_x        tau_y        tau_z
    1     1.000000     0.000000     1.000000     0.000000     0.000000     0.000000     0.000000     0.000000
    2    -1.000000   180.000000     0.000000     1.000000     0.000000    -0.500000     0.000000     0.000000
 
 Subroutine IBZKPT returns following result:
 ===========================================
 
 Found     24 irreducible k-points:
 
 Following reciprocal coordinates:
            Coordinates               Weight
  0.000000  0.000000  0.000000      1.000000
  0.100000  0.000000  0.000000      2.000000
  0.200000  0.000000  0.000000      2.000000
  0.300000  0.000000  0.000000      2.000000
  0.400000  0.000000  0.000000      2.000000
  0.500000  0.000000  0.000000      1.000000
  0.000000  0.333333  0.000000      2.000000
  0.100000  0.333333  0.000000      4.000000
  0.200000  0.333333  0.000000      4.000000
  0.300000  0.333333  0.000000      4.000000
  0.400000  0.333333  0.000000      4.000000
  0.500000  0.333333  0.000000      2.000000
  0.000000 -0.000000  0.500000      1.000000
  0.100000 -0.000000  0.500000      2.000000
  0.200000 -0.000000  0.500000      2.000000
  0.300000 -0.000000  0.500000      2.000000
  0.400000 -0.000000  0.500000      2.000000
  0.500000 -0.000000  0.500000      1.000000
  0.000000  0.333333  0.500000      2.000000
  0.100000  0.333333  0.500000      4.000000
  0.200000  0.333333  0.500000      4.000000
  0.300000  0.333333  0.500000      4.000000
  0.400000  0.333333  0.500000      4.000000
  0.500000  0.333333  0.500000      2.000000
 
 Following cartesian coordinates:
            Coordinates               Weight
  0.000000  0.000000  0.000000      1.000000
  0.000000  0.034821  0.000000      2.000000
  0.000000  0.069642  0.000000      2.000000
  0.000000  0.104463  0.000000      2.000000
  0.000000  0.139283  0.000000      2.000000
  0.000000  0.174104  0.000000      1.000000
  0.031929  0.000000 -0.000848      2.000000
  0.031929  0.034821 -0.000848      4.000000
  0.031929  0.069642 -0.000848      4.000000
  0.031929  0.104463 -0.000848      4.000000
  0.031929  0.139283 -0.000848      4.000000
  0.031929  0.174104 -0.000848      2.000000
  0.000857  0.000000 -0.032363      1.000000
  0.000857  0.034821 -0.032363      2.000000
  0.000857  0.069642 -0.032363      2.000000
  0.000857  0.104463 -0.032363      2.000000
  0.000857  0.139283 -0.032363      2.000000
  0.000857  0.174104 -0.032363      1.000000
  0.032786  0.000000 -0.033211      2.000000
  0.032786  0.034821 -0.033211      4.000000
  0.032786  0.069642 -0.033211      4.000000
  0.032786  0.104463 -0.033211      4.000000
  0.032786  0.139283 -0.033211      4.000000
  0.032786  0.174104 -0.033211      2.000000
 
 TETIRR: Found    180 inequivalent tetrahedra from      360


--------------------------------------------------------------------------------------------------------




 Dimension of arrays:
   k-points           NKPTS =     24   k-points in BZ     NKDIM =     24   number of bands    NBANDS=    144
   number of dos      NEDOS =    301   number of ions     NIONS =     46
   non local maximal  LDIM  =      6   non local SUM 2l+1 LMDIM =     18
   total plane-waves  NPLWV =  86400
   max r-space proj   IRMAX =      1   max aug-charges    IRDMAX=   7052
   dimension x,y,z NGX =    16 NGY =   60 NGZ =   90
   dimension x,y,z NGXF=    32 NGYF=  120 NGZF=  180
   support grid    NGXF=    32 NGYF=  120 NGZF=  180
   ions per type =              12  24  10
 NGX,Y,Z   is equivalent  to a cutoff of   9.26,  9.54,  9.67 a.u.
 NGXF,Y,Z  is equivalent  to a cutoff of  18.52, 19.09, 19.35 a.u.


 I would recommend the setting:
   dimension x,y,z NGX =    16 NGY =   58 NGZ =   86
 SYSTEM =  unknown system                          
 POSCAR =                                          

 Startparameter for this run:
   NWRITE =      1    write-flag & timer
   PREC   = normal    normal or accurate (medium, high low for compatibility)
   ISTART =      1    job   : 0-new  1-cont  2-samecut
   ICHARG =     11    charge: 1-file 2-atom 10-const
   ISPIN  =      2    spin polarized calculation?
   LNONCOLLINEAR =      F non collinear calculations
   LSORBIT =      F    spin-orbit coupling
   INIWAV =      1    electr: 0-lowe 1-rand  2-diag
   LASPH  =      F    aspherical Exc in radial PAW
   METAGGA=      F    non-selfconsistent MetaGGA calc.

 Electronic Relaxation 1
   ENCUT  =  520.0 eV  38.22 Ry    6.18 a.u.   5.34 19.43 28.76*2*pi/ulx,y,z
   ENINI  =  520.0     initial cutoff
   ENAUG  =  605.4 eV  augmentation charge cutoff
   NELM   =     60;   NELMIN=  5; NELMDL=  0     # of ELM steps 
   EDIFF  = 0.1E-04   stopping-criterion for ELM
   LREAL  =      F    real-space projection
   NLSPLINE    = F    spline interpolate recip. space projectors
   LCOMPAT=      F    compatible to vasp.4.4
   GGA_COMPAT  = T    GGA compatible to vasp.4.4-vasp.4.6
   LMAXPAW     = -100 max onsite density
   LMAXMIX     =    4 max onsite mixed and CHGCAR
   VOSKOWN=      1    Vosko Wilk Nusair interpolation
   ROPT   =    0.00000   0.00000   0.00000
 Ionic relaxation
   EDIFFG = -.2E-01   stopping-criterion for IOM
   NSW    =      0    number of steps for IOM
   NBLOCK =      1;   KBLOCK =      1    inner block; outer block 
   IBRION =     -1    ionic relax: 0-MD 1-quasi-New 2-CG
   NFREE  =      0    steps in history (QN), initial steepest desc. (CG)
   ISIF   =      2    stress and relaxation
   IWAVPR =     10    prediction:  0-non 1-charg 2-wave 3-comb
   ISYM   =      2    0-nonsym 1-usesym 2-fastsym
   LCORR  =      T    Harris-Foulkes like correction to forces

   POTIM  = 0.5000    time-step for ionic-motion
   TEIN   =    0.0    initial temperature
   TEBEG  =    0.0;   TEEND  =   0.0 temperature during run
   SMASS  =  -3.00    Nose mass-parameter (am)
   estimated Nose-frequenzy (Omega)   =  0.10E-29 period in steps =****** mass=  -0.188E-27a.u.
   SCALEE = 1.0000    scale energy and forces
   NPACO  =    256;   APACO  = 16.0  distance and # of slots for P.C.
   PSTRESS=    0.0 pullay stress

  Mass of Ions in am
   POMASS =  54.94 16.00  7.01
  Ionic Valenz
   ZVAL   =   7.00  6.00  1.00
  Atomic Wigner-Seitz radii
   RWIGS  =  -1.00 -1.00 -1.00
  virtual crystal weights 
   VCA    =   1.00  1.00  1.00
   NELECT =     238.0000    total number of electrons
   NUPDOWN=      -1.0000    fix difference up-down

 DOS related values:
   EMIN   =  10.00;   EMAX   =-10.00  energy-range for DOS
   EFERMI =   0.00
   ISMEAR =    -5;   SIGMA  =   0.20  broadening in eV -4-tet -1-fermi 0-gaus

 Electronic relaxation 2 (details)
   IALGO  =     38    algorithm
   LDIAG  =      T    sub-space diagonalisation (order eigenvalues)
   LSUBROT=      T    optimize rotation matrix (better conditioning)
   TURBO    =      0    0=normal 1=particle mesh
   IRESTART =      0    0=no restart 2=restart with 2 vectors
   NREBOOT  =      0    no. of reboots
   NMIN     =      0    reboot dimension
   EREF     =   0.00    reference energy to select bands
   IMIX   =      4    mixing-type and parameters
     AMIX     =   0.40;   BMIX     =  1.00
     AMIX_MAG =   1.60;   BMIX_MAG =  1.00
     AMIN     =   0.10
     WC   =   100.;   INIMIX=   1;  MIXPRE=   1;  MAXMIX= -45

 Intra band minimization:
   WEIMIN = 0.0000     energy-eigenvalue tresh-hold
   EBREAK =  0.17E-07  absolut break condition
   DEPER  =   0.30     relativ break condition  

   TIME   =   0.40     timestep for ELM

  volume/ion in A,a.u.               =      10.08        68.00
  Fermi-wavevector in a.u.,A,eV,Ry     =   1.310913  2.477265 23.381498  1.718492
  Thomas-Fermi vector in A             =   2.441410
 
 Write flags
   LWAVE  =      T    write WAVECAR
   LCHARG =      T    write CHGCAR
   LVTOT  =      F    write LOCPOT, total local potential
   LVHAR  =      F    write LOCPOT, Hartree potential only
   LELF   =      F    write electronic localiz. function (ELF)
   LORBIT =     11    0 simple, 1 ext, 2 COOP (PROOUT)


 Dipole corrections
   LMONO  =      F    monopole corrections only (constant potential shift)
   LDIPOL =      F    correct potential (dipole corrections)
   IDIPOL =      0    1-x, 2-y, 3-z, 4-all directions 
   EPSILON=  1.0000000 bulk dielectric constant

 LDA+U is selected, type is set to LDAUTYPE =  2
   angular momentum for each species LDAUL =     2   -1   -1
   U (eV)           for each species LDAUU =   3.9  0.0  0.0
   J (eV)           for each species LDAUJ =   0.0  0.0  0.0
 Exchange correlation treatment:
   GGA     =    --    GGA type
   LEXCH   =     8    internal setting for exchange type
   VOSKOWN=      1    Vosko Wilk Nusair interpolation
   LHFCALC =     F    Hartree Fock is set to
   LHFONE  =     F    Hartree Fock one center treatment
   AEXX    =    0.0000 exact exchange contribution

 Linear response parameters
   LEPSILON=     F    determine dielectric tensor
   LRPA    =     F    only Hartree local field effects (RPA)
   LNABLA  =     F    use nabla operator in PAW spheres
   LVEL    =     F    velocity operator in full k-point grid
   LINTERFAST=   F  fast interpolation
   KINTER  =     0    interpolate to denser k-point grid
   CSHIFT  =0.1000    complex shift for real part using Kramers Kronig
   OMEGAMAX=  -1.0    maximum frequency
   DEG_THRESHOLD= 0.2000000E-02 threshold for treating states as degnerate
   RTIME   =    0.100 relaxation time in fs

 Orbital magnetization related:
   ORBITALMAG=     F  switch on orbital magnetization
   LCHIMAG   =     F  perturbation theory with respect to B field
   DQ        =  0.001000  dq finite difference perturbation B field



--------------------------------------------------------------------------------------------------------


 Static calculation
 charge density and potential remain constant during run
 spin polarized calculation
 Variant of blocked Davidson
 Davidson routine will perform the subspace rotation
 perform sub-space diagonalisation
    after iterative eigenvector-optimisation
 no mixing
 using additional bands           25
 reciprocal scheme for non local part
 use partial core corrections
 calculate Harris-corrections to forces 
   (improved forces if not selfconsistent)
 use gradient corrections 
 WARNING: stress and forces are not correct
  (second derivative of E(xc) not defined)
 use of overlap-Matrix (Vanderbilt PP)
 Fermi weights with tetrahedron method with Bloechl corrections


--------------------------------------------------------------------------------------------------------


  energy-cutoff  :      520.00
  volume of cell :      463.53
      direct lattice vectors                 reciprocal lattice vectors
     0.000000000  2.871842421  0.000000000     0.000000000  0.348208520  0.000000000
    10.447198417  0.000000000  0.276697749     0.095786834  0.000000000 -0.002544525
    -0.410701704  0.000000000-15.460570852     0.001714296  0.000000000 -0.064726204

  length of vectors
     2.871842421 10.450861993 15.466024924     0.348208520  0.095820625  0.064748902


 
 old parameters found on file WAVECAR:
  energy-cutoff  :      520.00
  volume of cell :      463.53
      direct lattice vectors                 reciprocal lattice vectors
     0.000000000  2.871842421  0.000000000     0.000000000  0.348208520  0.000000000
    10.447198417  0.000000000  0.276697749     0.095786834  0.000000000 -0.002544525
    -0.410701704  0.000000000-15.460570852     0.001714296  0.000000000 -0.064726204

  length of vectors

 
 k-points in units of 2pi/SCALE and weight: Automatic mesh                          
   0.00000000  0.00000000  0.00000000       0.017
   0.00000000  0.03482085  0.00000000       0.033
   0.00000000  0.06964170  0.00000000       0.033
   0.00000000  0.10446256  0.00000000       0.033
   0.00000000  0.13928341  0.00000000       0.033
   0.00000000  0.17410426  0.00000000       0.017
   0.03192894  0.00000000 -0.00084818       0.033
   0.03192894  0.03482085 -0.00084818       0.067
   0.03192894  0.06964170 -0.00084818       0.067
   0.03192894  0.10446256 -0.00084818       0.067
   0.03192894  0.13928341 -0.00084818       0.067
   0.03192894  0.17410426 -0.00084818       0.033
   0.00085715  0.00000000 -0.03236310       0.017
   0.00085715  0.03482085 -0.03236310       0.033
   0.00085715  0.06964170 -0.03236310       0.033
   0.00085715  0.10446256 -0.03236310       0.033
   0.00085715  0.13928341 -0.03236310       0.033
   0.00085715  0.17410426 -0.03236310       0.017
   0.03278609  0.00000000 -0.03321128       0.033
   0.03278609  0.03482085 -0.03321128       0.067
   0.03278609  0.06964170 -0.03321128       0.067
   0.03278609  0.10446256 -0.03321128       0.067
   0.03278609  0.13928341 -0.03321128       0.067
   0.03278609  0.17410426 -0.03321128       0.033
 
 k-points in reciprocal lattice and weights: Automatic mesh                          
   0.00000000  0.00000000  0.00000000       0.017
   0.10000000  0.00000000  0.00000000       0.033
   0.20000000  0.00000000  0.00000000       0.033
   0.30000000  0.00000000  0.00000000       0.033
   0.40000000  0.00000000  0.00000000       0.033
   0.50000000  0.00000000  0.00000000       0.017
   0.00000000  0.33333333  0.00000000       0.033
   0.10000000  0.33333333  0.00000000       0.067
   0.20000000  0.33333333  0.00000000       0.067
   0.30000000  0.33333333  0.00000000       0.067
   0.40000000  0.33333333  0.00000000       0.067
   0.50000000  0.33333333  0.00000000       0.033
   0.00000000 -0.00000000  0.50000000       0.017
   0.10000000 -0.00000000  0.50000000       0.033
   0.20000000 -0.00000000  0.50000000       0.033
   0.30000000 -0.00000000  0.50000000       0.033
   0.40000000 -0.00000000  0.50000000       0.033
   0.50000000 -0.00000000  0.50000000       0.017
   0.00000000  0.33333333  0.50000000       0.033
   0.10000000  0.33333333  0.50000000       0.067
   0.20000000  0.33333333  0.50000000       0.067
   0.30000000  0.33333333  0.50000000       0.067
   0.40000000  0.33333333  0.50000000       0.067
   0.50000000  0.33333333  0.50000000       0.033
 
 position of ions in fractional coordinates (direct lattice) 
   0.25000000  0.14046423  0.64941896
   0.25000000  0.15582441  0.31441043
   0.25000000  0.10020882  0.98447188
   0.25000000  0.63643558  0.51819714
   0.25000000  0.63870329  0.18437710
   0.25000000  0.61334329  0.85521178
   0.75000000  0.89195015  0.33122863
   0.75000000  0.82768946  0.01603006
   0.75000000  0.86310420  0.66681823
   0.75000000  0.37283579  0.49945929
   0.75000000  0.35406419  0.15389282
   0.75000000  0.34957377  0.82128597
   0.25000000  0.28718973  0.55365096
   0.25000000  0.31799414  0.23275133
   0.25000000  0.27954118  0.88772206
   0.25000000  0.79829897  0.59183888
   0.25000000  0.79591714  0.27754568
   0.25000000  0.76229850  0.93794653
   0.75000000  0.70147437  0.44968673
   0.75000000  0.67228888  0.10257133
   0.75000000  0.68232166  0.79050240
   0.75000000  0.23086135  0.38785090
   0.75000000  0.17526723  0.05442707
   0.75000000  0.19088135  0.72824696
   0.25000000  0.47376836  0.44419673
   0.25000000  0.41467638  0.08116125
   0.25000000  0.45791242  0.77286901
   0.25000000  0.96075475  0.40810736
   0.25000000  0.92696480  0.06913971
   0.25000000  0.92413241  0.74160675
   0.75000000  0.56406220  0.58145894
   0.75000000  0.56442563  0.25196329
   0.75000000  0.53521423  0.91803892
   0.75000000  0.04952871  0.58531447
   0.75000000  0.06277362  0.25711151
   0.75000000  0.02839509  0.91085462
   0.25000000  0.12025332  0.48058767
   0.25000000  0.09310732  0.81706632
   0.25000000  0.64184184  0.34922563
   0.25000000  0.57148226  0.02258712
   0.75000000  0.89466850  0.49687145
   0.75000000  0.03118699  0.13845077
   0.75000000  0.86815699  0.83970799
   0.75000000  0.40415660  0.32042935
   0.75000000  0.34423167  0.99075072
   0.75000000  0.54027813  0.69962396
 
 position of ions in cartesian coordinates  (Angst):
   1.20074018  0.71796061-10.00152170
   1.49879961  0.71796061 -4.81784842
   0.64257714  0.71796061-15.19276966
   6.43614435  0.71796061 -7.83552326
   6.59693605  0.71796061 -2.67384750
   6.05648210  0.71796061-13.05235165
   9.18234402  2.15388182 -4.87418311
   8.64045248  2.15388182 -0.01881408
   8.74315744  2.15388182-10.07057151
   3.68996069  2.15388182 -7.61876285
   3.63577480  2.15388182 -2.28130203
   3.31476298  2.15388182-12.60082365
   2.77294269  0.71796061 -8.48029515
   3.22655649  0.71796061 -3.51048019
   2.55583323  0.71796061-13.64734133
   8.09691849  0.71796061 -8.92927936
   8.20111577  0.71796061 -4.07078625
   7.57866740  0.71796061-14.29026245
   7.14375487  2.15388182 -6.75831714
   6.98140907  2.15388182 -1.39979042
   6.80368907  2.15388182-12.03282151
   2.25256331  2.15388182 -5.93251743
   1.80869823  2.15388182 -0.79297754
   1.69508304  2.15388182-11.20629731
   4.76711974  0.71796061 -6.73644442
   4.29887337  0.71796061 -1.14005929
   4.46648332  0.71796061-11.82229276
   9.86958512  0.71796061 -6.04373403
   9.65578944  0.71796061 -0.81245031
   9.35001546  0.71796061-11.20995841
   5.65406350  2.15388182 -8.83361245
   5.79318475  2.15388182 -3.73932106
   5.21444906  2.15388182-14.04531314
   0.27704665  2.15388182 -9.03559143
   0.55021229  2.15388182 -3.95772133
  -0.07744043  2.15388182-14.07447547
   1.05893208  0.71796061 -7.39688595
   0.63714008  0.71796061-12.60654911
   6.56202152  0.71796061 -5.22163146
   5.96111199  0.71796061 -0.19108196
   9.14271338  2.15388182 -7.43436348
   0.26895475  2.15388182 -2.13189863
   8.72493879  2.15388182-12.74214785
   4.09070335  2.15388182 -4.84219143
   3.18935357  2.15388182-15.22232359
   5.35705610  2.15388182-10.66709211
 


--------------------------------------------------------------------------------------------------------


 k-point  1 :   0.0000 0.0000 0.0000  plane waves:   12487
 k-point  2 :   0.1000 0.0000 0.0000  plane waves:   12527
 k-point  3 :   0.2000 0.0000 0.0000  plane waves:   12491
 k-point  4 :   0.3000 0.0000 0.0000  plane waves:   12459
 k-point  5 :   0.4000 0.0000 0.0000  plane waves:   12460
 k-point  6 :   0.5000 0.0000 0.0000  plane waves:   12482
 k-point  7 :   0.0000 0.3333 0.0000  plane waves:   12531
 k-point  8 :   0.1000 0.3333 0.0000  plane waves:   12520
 k-point  9 :   0.2000 0.3333 0.0000  plane waves:   12488
 k-point 10 :   0.3000 0.3333 0.0000  plane waves:   12445
 k-point 11 :   0.4000 0.3333 0.0000  plane waves:   12447
 k-point 12 :   0.5000 0.3333 0.0000  plane waves:   12460
 k-point 13 :   0.0000-0.0000 0.5000  plane waves:   12512
 k-point 14 :   0.1000-0.0000 0.5000  plane waves:   12500
 k-point 15 :   0.2000-0.0000 0.5000  plane waves:   12496
 k-point 16 :   0.3000-0.0000 0.5000  plane waves:   12486
 k-point 17 :   0.4000-0.0000 0.5000  plane waves:   12450
 k-point 18 :   0.5000-0.0000 0.5000  plane waves:   12472
 k-point 19 :   0.0000 0.3333 0.5000  plane waves:   12536
 k-point 20 :   0.1000 0.3333 0.5000  plane waves:   12506
 k-point 21 :   0.2000 0.3333 0.5000  plane waves:   12476
 k-point 22 :   0.3000 0.3333 0.5000  plane waves:   12451
 k-point 23 :   0.4000 0.3333 0.5000  plane waves:   12454
 k-point 24 :   0.5000 0.3333 0.5000  plane waves:   12458

 maximum and minimum number of plane-waves per node :      3159     3082

 maximum number of plane-waves:     12536
 maximum index in each direction: 
   IXMAX=    5   IYMAX=   19   IZMAX=   28
   IXMIN=   -5   IYMIN=  -19   IZMIN=  -29

 WARNING: aliasing errors must be expected set NGX to  22 to avoid them
 WARNING: aliasing errors must be expected set NGY to  78 to avoid them
 WARNING: aliasing errors must be expected set NGZ to 116 to avoid them
 aliasing errors are usually negligible using standard VASP settings
 and one can safely disregard these warnings

 parallel 3D FFT for wavefunctions:
    minimum data exchange during FFTs selected (reduces bandwidth)
 parallel 3D FFT for charge:
    minimum data exchange during FFTs selected (reduces bandwidth)


 total amount of memory used by VASP on root node   115881. kBytes
========================================================================

   base      :      30000. kBytes
   nonl-proj :      35088. kBytes
   fftplans  :       1421. kBytes
   grid      :       3657. kBytes
   one-center:        373. kBytes
   wavefun   :      45342. kBytes
 
 initial charge density was supplied:
 number of electron     238.0000191 magnetization       1.9763770
 keeping initial charge density in first step


--------------------------------------------------------------------------------------------------------


 Maximum index for augmentation-charges          225 (set IRDMAX)


--------------------------------------------------------------------------------------------------------


 First call to EWALD:  gamma=   0.229
 Maximum number of real-space cells 7x 2x 2
 Maximum number of reciprocal cells 1x 4x 5

 FEWALD executed in parallel
    FEWALD:  cpu time    0.00: real time    0.00


----------------------------------------- Iteration    1(   1)  ---------------------------------------


    POTLOK:  cpu time    0.04: real time    0.05
    SETDIJ:  cpu time    0.01: real time    0.01
     EDDAV:  cpu time   15.57: real time   15.58
 BZINTS: Fermi energy:  3.271137;238.000000 electrons
         Band energy:-764.868448;  BLOECHL correction: -0.024867
       DOS:  cpu time    0.07: real time    0.07
    --------------------------------------------
      LOOP:  cpu time   15.70: real time   15.78

 eigenvalue-minimisations  : 13856
 total energy-change (2. order) :-0.2672073E+03  (-0.2708786E+03)
 number of electron     238.0000191 magnetization       1.9763770
 augmentation part      238.0000191 magnetization       1.9763770

 Free energy of the ion-electron system (eV)
  ---------------------------------------------------
  alpha Z        PSCENC =       784.76800280
  Ewald energy   TEWEN  =    -11717.87326735
  -1/2 Hartree   DENC   =     -4793.20644308
  -exchange  EXHF       =         0.00000000
  -V(xc)+E(xc)   XCENC  =       537.32032592
  PAW double counting   =     19002.21355344   -18746.17432419
  entropy T*S    EENTRO =         0.00000000
  eigenvalues    EBANDS =      -764.86844782
  atomic energy  EATOM  =     15430.61328045
  ---------------------------------------------------
  free energy    TOTEN  =      -267.20731983 eV

  energy without entropy =     -267.20731983  energy(sigma->0) =     -267.20731983


--------------------------------------------------------------------------------------------------------




----------------------------------------- Iteration    1(   2)  ---------------------------------------


     EDDAV:  cpu time   20.74: real time   20.76
 BZINTS: Fermi energy:  3.132529;238.000000 electrons
         Band energy:-800.336859;  BLOECHL correction: -0.001332
       DOS:  cpu time    0.07: real time    0.07
    --------------------------------------------
      LOOP:  cpu time   20.81: real time   21.03

 eigenvalue-minimisations  : 20192
 total energy-change (2. order) :-0.3546841E+02  (-0.3523414E+02)
 number of electron     238.0000191 magnetization       1.9763770
 augmentation part      238.0000191 magnetization       1.9763770

 Free energy of the ion-electron system (eV)
  ---------------------------------------------------
  alpha Z        PSCENC =       784.76800280
  Ewald energy   TEWEN  =    -11717.87326735
  -1/2 Hartree   DENC   =     -4793.20644308
  -exchange  EXHF       =         0.00000000
  -V(xc)+E(xc)   XCENC  =       537.32032592
  PAW double counting   =     19002.21355344   -18746.17432419
  entropy T*S    EENTRO =         0.00000000
  eigenvalues    EBANDS =      -800.33685877
  atomic energy  EATOM  =     15430.61328045
  ---------------------------------------------------
  free energy    TOTEN  =      -302.67573077 eV

  energy without entropy =     -302.67573077  energy(sigma->0) =     -302.67573077


--------------------------------------------------------------------------------------------------------




----------------------------------------- Iteration    1(   3)  ---------------------------------------


     EDDAV:  cpu time   21.61: real time   21.62
 BZINTS: Fermi energy:  3.129468;238.000000 electrons
         Band energy:-801.864778;  BLOECHL correction: -0.001051
       DOS:  cpu time    0.07: real time    0.07
    --------------------------------------------
      LOOP:  cpu time   21.69: real time   21.89

 eigenvalue-minimisations  : 21272
 total energy-change (2. order) :-0.1527919E+01  (-0.1524880E+01)
 number of electron     238.0000191 magnetization       1.9763770
 augmentation part      238.0000191 magnetization       1.9763770

 Free energy of the ion-electron system (eV)
  ---------------------------------------------------
  alpha Z        PSCENC =       784.76800280
  Ewald energy   TEWEN  =    -11717.87326735
  -1/2 Hartree   DENC   =     -4793.20644308
  -exchange  EXHF       =         0.00000000
  -V(xc)+E(xc)   XCENC  =       537.32032592
  PAW double counting   =     19002.21355344   -18746.17432419
  entropy T*S    EENTRO =         0.00000000
  eigenvalues    EBANDS =      -801.86477823
  atomic energy  EATOM  =     15430.61328045
  ---------------------------------------------------
  free energy    TOTEN  =      -304.20365023 eV

  energy without entropy =     -304.20365023  energy(sigma->0) =     -304.20365023


--------------------------------------------------------------------------------------------------------




----------------------------------------- Iteration    1(   4)  ---------------------------------------


     EDDAV:  cpu time   21.73: real time   21.75
 BZINTS: Fermi energy:  3.129270;238.000000 electrons
         Band energy:-801.952618;  BLOECHL correction: -0.001051
       DOS:  cpu time    0.07: real time    0.07
    --------------------------------------------
      LOOP:  cpu time   21.81: real time   21.90

 eigenvalue-minimisations  : 21392
 total energy-change (2. order) :-0.8783936E-01  (-0.8778418E-01)
 number of electron     238.0000191 magnetization       1.9763770
 augmentation part      238.0000191 magnetization       1.9763770

 Free energy of the ion-electron system (eV)
  ---------------------------------------------------
  alpha Z        PSCENC =       784.76800280
  Ewald energy   TEWEN  =    -11717.87326735
  -1/2 Hartree   DENC   =     -4793.20644308
  -exchange  EXHF       =         0.00000000
  -V(xc)+E(xc)   XCENC  =       537.32032592
  PAW double counting   =     19002.21355344   -18746.17432419
  entropy T*S    EENTRO =         0.00000000
  eigenvalues    EBANDS =      -801.95261759
  atomic energy  EATOM  =     15430.61328045
  ---------------------------------------------------
  free energy    TOTEN  =      -304.29148959 eV

  energy without entropy =     -304.29148959  energy(sigma->0) =     -304.29148959


--------------------------------------------------------------------------------------------------------




----------------------------------------- Iteration    1(   5)  ---------------------------------------


     EDDAV:  cpu time   21.42: real time   21.43
 BZINTS: Fermi energy:  3.129260;238.000000 electrons
         Band energy:-801.958535;  BLOECHL correction: -0.001050
       DOS:  cpu time    0.07: real time    0.07
    --------------------------------------------
      LOOP:  cpu time   21.49: real time   21.58

 eigenvalue-minimisations  : 20992
 total energy-change (2. order) :-0.5917563E-02  (-0.5915435E-02)
 number of electron     238.0000191 magnetization       1.9763770
 augmentation part      238.0000191 magnetization       1.9763770

 Free energy of the ion-electron system (eV)
  ---------------------------------------------------
  alpha Z        PSCENC =       784.76800280
  Ewald energy   TEWEN  =    -11717.87326735
  -1/2 Hartree   DENC   =     -4793.20644308
  -exchange  EXHF       =         0.00000000
  -V(xc)+E(xc)   XCENC  =       537.32032592
  PAW double counting   =     19002.21355344   -18746.17432419
  entropy T*S    EENTRO =         0.00000000
  eigenvalues    EBANDS =      -801.95853515
  atomic energy  EATOM  =     15430.61328045
  ---------------------------------------------------
  free energy    TOTEN  =      -304.29740715 eV

  energy without entropy =     -304.29740715  energy(sigma->0) =     -304.29740715


--------------------------------------------------------------------------------------------------------




----------------------------------------- Iteration    1(   6)  ---------------------------------------


     EDDAV:  cpu time   20.04: real time   20.06
 BZINTS: Fermi energy:  3.129260;238.000000 electrons
         Band energy:-801.959054;  BLOECHL correction: -0.001050
       DOS:  cpu time    0.07: real time    0.07
    --------------------------------------------
      LOOP:  cpu time   20.12: real time   20.22

 eigenvalue-minimisations  : 19336
 total energy-change (2. order) :-0.5185102E-03  (-0.5184602E-03)
 number of electron     238.0000191 magnetization       1.9763770
 augmentation part      238.0000191 magnetization       1.9763770

 Free energy of the ion-electron system (eV)
  ---------------------------------------------------
  alpha Z        PSCENC =       784.76800280
  Ewald energy   TEWEN  =    -11717.87326735
  -1/2 Hartree   DENC   =     -4793.20644308
  -exchange  EXHF       =         0.00000000
  -V(xc)+E(xc)   XCENC  =       537.32032592
  PAW double counting   =     19002.21355344   -18746.17432419
  entropy T*S    EENTRO =         0.00000000
  eigenvalues    EBANDS =      -801.95905366
  atomic energy  EATOM  =     15430.61328045
  ---------------------------------------------------
  free energy    TOTEN  =      -304.29792566 eV

  energy without entropy =     -304.29792566  energy(sigma->0) =     -304.29792566


--------------------------------------------------------------------------------------------------------




----------------------------------------- Iteration    1(   7)  ---------------------------------------


     EDDAV:  cpu time   16.34: real time   16.35
 BZINTS: Fermi energy:  3.129260;238.000000 electrons
         Band energy:-801.959087;  BLOECHL correction: -0.001050
       DOS:  cpu time    0.07: real time    0.07
    --------------------------------------------
      LOOP:  cpu time   16.41: real time   16.51

 eigenvalue-minimisations  : 14728
 total energy-change (2. order) :-0.3289637E-04  (-0.3289252E-04)
 number of electron     238.0000191 magnetization       1.9763770
 augmentation part      238.0000191 magnetization       1.9763770

 Free energy of the ion-electron system (eV)
  ---------------------------------------------------
  alpha Z        PSCENC =       784.76800280
  Ewald energy   TEWEN  =    -11717.87326735
  -1/2 Hartree   DENC   =     -4793.20644308
  -exchange  EXHF       =         0.00000000
  -V(xc)+E(xc)   XCENC  =       537.32032592
  PAW double counting   =     19002.21355344   -18746.17432419
  entropy T*S    EENTRO =         0.00000000
  eigenvalues    EBANDS =      -801.95908656
  atomic energy  EATOM  =     15430.61328045
  ---------------------------------------------------
  free energy    TOTEN  =      -304.29795856 eV

  energy without entropy =     -304.29795856  energy(sigma->0) =     -304.29795856


--------------------------------------------------------------------------------------------------------




----------------------------------------- Iteration    1(   8)  ---------------------------------------


     EDDAV:  cpu time   13.56: real time   13.57
 BZINTS: Fermi energy:  3.129260;238.000000 electrons
         Band energy:-801.959090;  BLOECHL correction: -0.001050
       DOS:  cpu time    0.07: real time    0.07
    --------------------------------------------
      LOOP:  cpu time   13.63: real time   13.72

 eigenvalue-minimisations  : 11256
 total energy-change (2. order) :-0.3121208E-05  (-0.3120686E-05)
 number of electron     238.0000191 magnetization       1.9763770
 augmentation part      238.0000191 magnetization       1.9763770

 Free energy of the ion-electron system (eV)
  ---------------------------------------------------
  alpha Z        PSCENC =       784.76800280
  Ewald energy   TEWEN  =    -11717.87326735
  -1/2 Hartree   DENC   =     -4793.20644308
  -exchange  EXHF       =         0.00000000
  -V(xc)+E(xc)   XCENC  =       537.32032592
  PAW double counting   =     19002.21355344   -18746.17432419
  entropy T*S    EENTRO =         0.00000000
  eigenvalues    EBANDS =      -801.95908968
  atomic energy  EATOM  =     15430.61328045
  ---------------------------------------------------
  free energy    TOTEN  =      -304.29796168 eV

  energy without entropy =     -304.29796168  energy(sigma->0) =     -304.29796168


--------------------------------------------------------------------------------------------------------




 average (electrostatic) potential at core
  the test charge radii are     1.0210  0.7215  0.9748
  (the norm of the test charge is              1.0000)
       1 -47.0347       2 -46.5827       3 -46.7839       4 -48.2805       5 -46.8666
       6 -48.5387       7 -46.5619       8 -47.3052       9 -47.5666      10 -47.0997
      11 -46.9756      12 -47.3794      13 -71.5377      14 -71.3935      15 -71.8166
      16 -72.1939      17 -71.1020      18 -72.3355      19 -71.7133      20 -71.3971
      21 -72.0449      22 -71.2584      23 -71.2588      24 -71.6119      25 -72.1524
      26 -71.2561      27 -72.4483      28 -71.0546      29 -71.6996      30 -71.7840
      31 -71.8819      32 -71.1953      33 -72.0787      34 -71.4868      35 -71.1869
      36 -71.2099      37 -25.5854      38 -25.6691      39 -25.5884      40 -25.5605
      41 -25.5240      42 -25.1267      43 -25.6966      44 -25.7477      45 -25.7177
      46 -25.6526
 
 
 
 E-fermi :   3.1293     XC(G=0): -10.5263     alpha+bet :-11.4233


 spin component 1

 k-point   1 :       0.0000    0.0000    0.0000
  band No.  band energies     occupation 
      1     -16.1708      1.00000
      2     -15.9104      1.00000
      3     -15.6555      1.00000
      4     -15.5259      1.00000
      5     -15.2665      1.00000
      6     -15.1424      1.00000
      7     -15.0912      1.00000
      8     -14.9452      1.00000
      9     -14.9137      1.00000
     10     -14.7961      1.00000
     11     -14.7881      1.00000
     12     -14.7632      1.00000
     13     -14.6749      1.00000
     14     -14.5632      1.00000
     15     -14.5502      1.00000
     16     -14.5221      1.00000
     17     -14.4353      1.00000
     18     -14.3912      1.00000
     19     -14.1745      1.00000
     20     -14.1094      1.00000
     21     -13.9904      1.00000
     22     -13.9268      1.00000
     23     -13.8567      1.00000
     24     -13.7353      1.00000
     25      -4.2052      1.00000
     26      -3.6839      1.00000
     27      -3.5260      1.00000
     28      -3.4378      1.00000
     29      -3.4044      1.00000
     30      -3.3746      1.00000
     31      -3.0027      1.00000
     32      -2.8881      1.00000
     33      -2.7113      1.00000
     34      -2.5810      1.00000
     35      -2.5133      1.00000
     36      -2.3887      1.00000
     37      -2.3581      1.00000
     38      -2.3281      1.00000
     39      -2.3009      1.00000
     40      -2.1783      1.00000
     41      -2.1006      1.00000
     42      -1.9252      1.00000
     43      -1.9021      1.00000
     44      -1.7675      1.00000
     45      -1.7611      1.00000
     46      -1.7572      1.00000
     47      -1.7428      1.00000
     48      -1.6725      1.00000
     49      -1.6079      1.00000
     50      -1.5860      1.00000
     51      -1.5457      1.00000
     52      -1.5247      1.00000
     53      -1.4516      1.00000
     54      -1.4206      1.00000
     55      -1.3941      1.00000
     56      -1.3211      1.00000
     57      -1.2657      1.00000
     58      -1.1684      1.00000
     59      -1.1344      1.00000
     60      -1.0534      1.00000
     61      -0.9777      1.00000
     62      -0.9598      1.00000
     63      -0.9592      1.00000
     64      -0.9342      1.00000
     65      -0.7889      1.00000
     66      -0.7837      1.00000
     67      -0.6841      1.00000
     68      -0.6373      1.00000
     69      -0.5855      1.00000
     70      -0.5415      1.00000
     71      -0.5134      1.00000
     72      -0.5125      1.00000
     73      -0.3973      1.00000
     74      -0.3570      1.00000
     75      -0.2978      1.00000
     76      -0.1993      1.00000
     77      -0.1746      1.00000
     78      -0.0568      1.00000
     79      -0.0433      1.00000
     80       0.0699      1.00000
     81       0.1543      1.00000
     82       0.1843      1.00000
     83       0.2863      1.00000
     84       0.3854      1.00000
     85       0.4774      1.00000
     86       0.5018      1.00000
     87       0.5064      1.00000
     88       0.5945      1.00000
     89       0.6799      1.00000
     90       0.6819      1.00000
     91       0.7552      1.00000
     92       0.7793      1.00000
     93       0.8197      1.00000
     94       0.8685      1.00000
     95       0.9007      1.00000
     96       0.9252      1.00000
     97       1.0922      1.00000
     98       1.1107      1.00000
     99       1.1277      1.00000
    100       1.1836      1.00000
    101       1.2330      1.00000
    102       1.2833      1.00000
    103       1.4144      1.00000
    104       1.4445      1.00000
    105       1.5143      1.00000
    106       1.5199      1.00000
    107       1.5760      1.00000
    108       1.6652      1.00000
    109       1.7286      1.00000
    110       1.7731      1.00000
    111       1.9669      1.00000
    112       2.0131      1.00000
    113       2.0445      1.00000
    114       2.0522      1.00000
    115       2.0999      1.00000
    116       2.1945      1.00000
    117       2.2595      1.00000
    118       2.5502      1.00000
    119       2.7597      1.00000
    120       3.1680      0.20000
    121       4.6506      0.00000
    122       4.8457      0.00000
    123       5.0702      0.00000
    124       5.1065      0.00000
    125       5.1375      0.00000
    126       5.1801      0.00000
    127       5.3060      0.00000
    128       5.4925      0.00000
    129       5.5850      0.00000
    130       5.6203      0.00000
    131       5.6209      0.00000
    132       5.7373      0.00000
    133       5.7796      0.00000
    134       5.9185      0.00000
    135       6.1229      0.00000
    136       6.2670      0.00000
    137       6.3941      0.00000
    138       6.4737      0.00000
    139       6.4898      0.00000
    140       6.6623      0.00000
    141       6.7311      0.00000
    142       6.7337      0.00000
    143       6.7720      0.00000
    144       6.8655      0.00000

 k-point   2 :       0.1000    0.0000    0.0000
  band No.  band energies     occupation 
      1     -16.0992      1.00000
      2     -15.8355      1.00000
      3     -15.6013      1.00000
      4     -15.4605      1.00000
      5     -15.2092      1.00000
      6     -15.0841      1.00000
      7     -15.0199      1.00000
      8     -14.9085      1.00000
      9     -14.8575      1.00000
     10     -14.7731      1.00000
     11     -14.7345      1.00000
     12     -14.7092      1.00000
     13     -14.6613      1.00000
     14     -14.5576      1.00000
     15     -14.5268      1.00000
     16     -14.5014      1.00000
     17     -14.4124      1.00000
     18     -14.3677      1.00000
     19     -14.1741      1.00000
     20     -14.1028      1.00000
     21     -13.9852      1.00000
     22     -13.9267      1.00000
     23     -13.8622      1.00000
     24     -13.7386      1.00000
     25      -4.0614      1.00000
     26      -3.5414      1.00000
     27      -3.3797      1.00000
     28      -3.2954      1.00000
     29      -3.2732      1.00000
     30      -3.2334      1.00000
     31      -2.9180      1.00000
     32      -2.8138      1.00000
     33      -2.6436      1.00000
     34      -2.5241      1.00000
     35      -2.4889      1.00000
     36      -2.4540      1.00000
     37      -2.3755      1.00000
     38      -2.2751      1.00000
     39      -2.2573      1.00000
     40      -2.1640      1.00000
     41      -2.1003      1.00000
     42      -1.9702      1.00000
     43      -1.9204      1.00000
     44      -1.8558      1.00000
     45      -1.8230      1.00000
     46      -1.7955      1.00000
     47      -1.7859      1.00000
     48      -1.7296      1.00000
     49      -1.6776      1.00000
     50      -1.6435      1.00000
     51      -1.6412      1.00000
     52      -1.5597      1.00000
     53      -1.5150      1.00000
     54      -1.5011      1.00000
     55      -1.4486      1.00000
     56      -1.4410      1.00000
     57      -1.4076      1.00000
     58      -1.3457      1.00000
     59      -1.2607      1.00000
     60      -1.1089      1.00000
     61      -1.0771      1.00000
     62      -0.9964      1.00000
     63      -0.9883      1.00000
     64      -0.9337      1.00000
     65      -0.9080      1.00000
     66      -0.8307      1.00000
     67      -0.7453      1.00000
     68      -0.6735      1.00000
     69      -0.5830      1.00000
     70      -0.5682      1.00000
     71      -0.5043      1.00000
     72      -0.3481      1.00000
     73      -0.2902      1.00000
     74      -0.2531      1.00000
     75      -0.2133      1.00000
     76      -0.1984      1.00000
     77      -0.1764      1.00000
     78      -0.1388      1.00000
     79      -0.0430      1.00000
     80       0.0152      1.00000
     81       0.0378      1.00000
     82       0.1225      1.00000
     83       0.1715      1.00000
     84       0.2420      1.00000
     85       0.2831      1.00000
     86       0.3722      1.00000
     87       0.3907      1.00000
     88       0.4856      1.00000
     89       0.6044      1.00000
     90       0.6576      1.00000
     91       0.6781      1.00000
     92       0.7357      1.00000
     93       0.7876      1.00000
     94       0.8170      1.00000
     95       0.8827      1.00000
     96       0.9613      1.00000
     97       1.0255      1.00000
     98       1.0519      1.00000
     99       1.1016      1.00000
    100       1.1926      1.00000
    101       1.2343      1.00000
    102       1.2772      1.00000
    103       1.3275      1.00000
    104       1.4432      1.00000
    105       1.4439      1.00000
    106       1.4956      1.00000
    107       1.5761      1.00000
    108       1.6311      1.00000
    109       1.7019      1.00000
    110       1.8049      1.00000
    111       1.8535      1.00000
    112       1.9614      1.00000
    113       1.9814      1.00000
    114       2.0794      1.00000
    115       2.0965      1.00000
    116       2.1809      1.00000
    117       2.2445      1.00000
    118       2.5991      1.00000
    119       2.7099      1.00000
    120       3.1110      0.95292
    121       4.4657      0.00000
    122       4.8292      0.00000
    123       4.9016      0.00000
    124       5.0062      0.00000
    125       5.0492      0.00000
    126       5.2024      0.00000
    127       5.2253      0.00000
    128       5.3102      0.00000
    129       5.3784      0.00000
    130       5.6081      0.00000
    131       5.6519      0.00000
    132       5.6755      0.00000
    133       5.8409      0.00000
    134       5.9013      0.00000
    135       6.2166      0.00000
    136       6.2646      0.00000
    137       6.3010      0.00000
    138       6.3893      0.00000
    139       6.5232      0.00000
    140       6.6147      0.00000
    141       6.7352      0.00000
    142       6.7574      0.00000
    143       6.8353      0.00000
    144       7.0390      0.00000

 k-point   3 :       0.2000    0.0000    0.0000
  band No.  band energies     occupation 
      1     -15.9030      1.00000
      2     -15.6302      1.00000
      3     -15.4586      1.00000
      4     -15.2869      1.00000
      5     -15.0679      1.00000
      6     -14.9291      1.00000
      7     -14.8573      1.00000
      8     -14.7974      1.00000
      9     -14.7352      1.00000
     10     -14.7193      1.00000
     11     -14.6353      1.00000
     12     -14.5766      1.00000
     13     -14.5560      1.00000
     14     -14.5425      1.00000
     15     -14.4744      1.00000
     16     -14.4173      1.00000
     17     -14.3660      1.00000
     18     -14.2569      1.00000
     19     -14.1723      1.00000
     20     -14.0836      1.00000
     21     -13.9717      1.00000
     22     -13.9257      1.00000
     23     -13.8764      1.00000
     24     -13.7480      1.00000
     25      -3.6648      1.00000
     26      -3.1586      1.00000
     27      -2.9852      1.00000
     28      -2.9317      1.00000
     29      -2.9072      1.00000
     30      -2.8562      1.00000
     31      -2.7001      1.00000
     32      -2.6650      1.00000
     33      -2.6310      1.00000
     34      -2.5675      1.00000
     35      -2.4231      1.00000
     36      -2.3935      1.00000
     37      -2.3025      1.00000
     38      -2.2885      1.00000
     39      -2.2121      1.00000
     40      -2.1982      1.00000
     41      -2.1498      1.00000
     42      -2.1014      1.00000
     43      -2.0355      1.00000
     44      -1.9908      1.00000
     45      -1.9499      1.00000
     46      -1.8989      1.00000
     47      -1.8826      1.00000
     48      -1.8449      1.00000
     49      -1.8104      1.00000
     50      -1.7910      1.00000
     51      -1.7734      1.00000
     52      -1.7037      1.00000
     53      -1.6627      1.00000
     54      -1.6251      1.00000
     55      -1.5835      1.00000
     56      -1.5609      1.00000
     57      -1.5347      1.00000
     58      -1.5037      1.00000
     59      -1.3661      1.00000
     60      -1.3479      1.00000
     61      -1.2360      1.00000
     62      -1.2002      1.00000
     63      -1.1694      1.00000
     64      -1.1434      1.00000
     65      -1.0717      1.00000
     66      -1.0393      1.00000
     67      -0.8842      1.00000
     68      -0.8196      1.00000
     69      -0.8094      1.00000
     70      -0.7288      1.00000
     71      -0.5871      1.00000
     72      -0.5002      1.00000
     73      -0.4676      1.00000
     74      -0.4538      1.00000
     75      -0.4106      1.00000
     76      -0.3478      1.00000
     77      -0.3077      1.00000
     78      -0.2432      1.00000
     79      -0.1955      1.00000
     80      -0.1312      1.00000
     81      -0.1019      1.00000
     82       0.0210      1.00000
     83       0.1023      1.00000
     84       0.1915      1.00000
     85       0.2315      1.00000
     86       0.3044      1.00000
     87       0.3348      1.00000
     88       0.3776      1.00000
     89       0.4354      1.00000
     90       0.5659      1.00000
     91       0.5798      1.00000
     92       0.6175      1.00000
     93       0.7340      1.00000
     94       0.7910      1.00000
     95       0.8405      1.00000
     96       0.9480      1.00000
     97       1.0270      1.00000
     98       1.0629      1.00000
     99       1.0782      1.00000
    100       1.1279      1.00000
    101       1.1831      1.00000
    102       1.2416      1.00000
    103       1.2921      1.00000
    104       1.3580      1.00000
    105       1.4475      1.00000
    106       1.4670      1.00000
    107       1.5236      1.00000
    108       1.5645      1.00000
    109       1.5786      1.00000
    110       1.7215      1.00000
    111       1.7665      1.00000
    112       1.8244      1.00000
    113       1.8671      1.00000
    114       1.9724      1.00000
    115       2.0739      1.00000
    116       2.1600      1.00000
    117       2.1993      1.00000
    118       2.5181      1.00000
    119       2.6694      1.00000
    120       2.8906      1.00000
    121       4.1132      0.00000
    122       4.4367      0.00000
    123       4.4960      0.00000
    124       4.6310      0.00000
    125       4.8239      0.00000
    126       5.0216      0.00000
    127       5.1792      0.00000
    128       5.4298      0.00000
    129       5.4720      0.00000
    130       5.5662      0.00000
    131       5.7026      0.00000
    132       5.7251      0.00000
    133       5.7356      0.00000
    134       5.9707      0.00000
    135       6.0803      0.00000
    136       6.2068      0.00000
    137       6.2391      0.00000
    138       6.2956      0.00000
    139       6.4284      0.00000
    140       6.5106      0.00000
    141       6.6883      0.00000
    142       6.7124      0.00000
    143       6.7582      0.00000
    144       6.8413      0.00000

 k-point   4 :       0.3000    0.0000    0.0000
  band No.  band energies     occupation 
      1     -15.6392      1.00000
      2     -15.3525      1.00000
      3     -15.2825      1.00000
      4     -15.0736      1.00000
      5     -14.9283      1.00000
      6     -14.7913      1.00000
      7     -14.7316      1.00000
      8     -14.6730      1.00000
      9     -14.6198      1.00000
     10     -14.5825      1.00000
     11     -14.5193      1.00000
     12     -14.5085      1.00000
     13     -14.4696      1.00000
     14     -14.3818      1.00000
     15     -14.3293      1.00000
     16     -14.2954      1.00000
     17     -14.2067      1.00000
     18     -14.1801      1.00000
     19     -14.1079      1.00000
     20     -14.0493      1.00000
     21     -13.9556      1.00000
     22     -13.9279      1.00000
     23     -13.8817      1.00000
     24     -13.7616      1.00000
     25      -3.2306      1.00000
     26      -2.9166      1.00000
     27      -2.8583      1.00000
     28      -2.7668      1.00000
     29      -2.7411      1.00000
     30      -2.6291      1.00000
     31      -2.5738      1.00000
     32      -2.5680      1.00000
     33      -2.5316      1.00000
     34      -2.4815      1.00000
     35      -2.4655      1.00000
     36      -2.4251      1.00000
     37      -2.3559      1.00000
     38      -2.2918      1.00000
     39      -2.2657      1.00000
     40      -2.2255      1.00000
     41      -2.2046      1.00000
     42      -2.1969      1.00000
     43      -2.1281      1.00000
     44      -2.0831      1.00000
     45      -2.0593      1.00000
     46      -2.0337      1.00000
     47      -1.9803      1.00000
     48      -1.9386      1.00000
     49      -1.9096      1.00000
     50      -1.8579      1.00000
     51      -1.8301      1.00000
     52      -1.7934      1.00000
     53      -1.7777      1.00000
     54      -1.7302      1.00000
     55      -1.7098      1.00000
     56      -1.6514      1.00000
     57      -1.5440      1.00000
     58      -1.5248      1.00000
     59      -1.4869      1.00000
     60      -1.4318      1.00000
     61      -1.3837      1.00000
     62      -1.3567      1.00000
     63      -1.2910      1.00000
     64      -1.2564      1.00000
     65      -1.2054      1.00000
     66      -1.0914      1.00000
     67      -1.0805      1.00000
     68      -1.0343      1.00000
     69      -0.9615      1.00000
     70      -0.8871      1.00000
     71      -0.8560      1.00000
     72      -0.7465      1.00000
     73      -0.6838      1.00000
     74      -0.6320      1.00000
     75      -0.5826      1.00000
     76      -0.4509      1.00000
     77      -0.3695      1.00000
     78      -0.3157      1.00000
     79      -0.2645      1.00000
     80      -0.2167      1.00000
     81      -0.1498      1.00000
     82      -0.0311      1.00000
     83       0.0332      1.00000
     84       0.1067      1.00000
     85       0.1376      1.00000
     86       0.2722      1.00000
     87       0.3228      1.00000
     88       0.3702      1.00000
     89       0.4006      1.00000
     90       0.4139      1.00000
     91       0.4661      1.00000
     92       0.5102      1.00000
     93       0.6517      1.00000
     94       0.6651      1.00000
     95       0.7163      1.00000
     96       0.7551      1.00000
     97       0.8139      1.00000
     98       0.8403      1.00000
     99       0.9222      1.00000
    100       0.9594      1.00000
    101       1.0499      1.00000
    102       1.0936      1.00000
    103       1.1316      1.00000
    104       1.1717      1.00000
    105       1.2321      1.00000
    106       1.3399      1.00000
    107       1.3938      1.00000
    108       1.4738      1.00000
    109       1.5336      1.00000
    110       1.5982      1.00000
    111       1.6720      1.00000
    112       1.7579      1.00000
    113       1.8298      1.00000
    114       1.8988      1.00000
    115       1.9867      1.00000
    116       2.0948      1.00000
    117       2.2125      1.00000
    118       2.3249      1.00000
    119       2.5240      1.00000
    120       2.6568      1.00000
    121       3.9663      0.00000
    122       4.3420      0.00000
    123       4.4105      0.00000
    124       4.5591      0.00000
    125       4.7630      0.00000
    126       4.9682      0.00000
    127       5.1909      0.00000
    128       5.3067      0.00000
    129       5.4863      0.00000
    130       5.5226      0.00000
    131       5.6148      0.00000
    132       5.8533      0.00000
    133       5.9045      0.00000
    134       5.9428      0.00000
    135       6.1659      0.00000
    136       6.2355      0.00000
    137       6.2818      0.00000
    138       6.2914      0.00000
    139       6.3475      0.00000
    140       6.5281      0.00000
    141       6.6834      0.00000
    142       6.7145      0.00000
    143       6.8679      0.00000
    144       7.0118      0.00000

 k-point   5 :       0.4000    0.0000    0.0000
  band No.  band energies     occupation 
      1     -15.4028      1.00000
      2     -15.1381      1.00000
      3     -15.0983      1.00000
      4     -14.9153      1.00000
      5     -14.8629      1.00000
      6     -14.7700      1.00000
      7     -14.6430      1.00000
      8     -14.5882      1.00000
      9     -14.5312      1.00000
     10     -14.5252      1.00000
     11     -14.4514      1.00000
     12     -14.3901      1.00000
     13     -14.3179      1.00000
     14     -14.2485      1.00000
     15     -14.1790      1.00000
     16     -14.1540      1.00000
     17     -14.1191      1.00000
     18     -14.0870      1.00000
     19     -14.0037      1.00000
     20     -13.9965      1.00000
     21     -13.9431      1.00000
     22     -13.9334      1.00000
     23     -13.8552      1.00000
     24     -13.7688      1.00000
     25      -3.5499      1.00000
     26      -3.2432      1.00000
     27      -3.0642      1.00000
     28      -3.0017      1.00000
     29      -2.8974      1.00000
     30      -2.8817      1.00000
     31      -2.7889      1.00000
     32      -2.7586      1.00000
     33      -2.7174      1.00000
     34      -2.6463      1.00000
     35      -2.6157      1.00000
     36      -2.5625      1.00000
     37      -2.3755      1.00000
     38      -2.3464      1.00000
     39      -2.3095      1.00000
     40      -2.2434      1.00000
     41      -2.2056      1.00000
     42      -2.1310      1.00000
     43      -2.0739      1.00000
     44      -2.0602      1.00000
     45      -2.0073      1.00000
     46      -1.9874      1.00000
     47      -1.8541      1.00000
     48      -1.8451      1.00000
     49      -1.8179      1.00000
     50      -1.7358      1.00000
     51      -1.7044      1.00000
     52      -1.6827      1.00000
     53      -1.6073      1.00000
     54      -1.5395      1.00000
     55      -1.5022      1.00000
     56      -1.4974      1.00000
     57      -1.4321      1.00000
     58      -1.3900      1.00000
     59      -1.3593      1.00000
     60      -1.2875      1.00000
     61      -1.2770      1.00000
     62      -1.2217      1.00000
     63      -1.1630      1.00000
     64      -1.1347      1.00000
     65      -1.0696      1.00000
     66      -0.9934      1.00000
     67      -0.9858      1.00000
     68      -0.9242      1.00000
     69      -0.8926      1.00000
     70      -0.8696      1.00000
     71      -0.8141      1.00000
     72      -0.7511      1.00000
     73      -0.6831      1.00000
     74      -0.6800      1.00000
     75      -0.6215      1.00000
     76      -0.5314      1.00000
     77      -0.4807      1.00000
     78      -0.4337      1.00000
     79      -0.3599      1.00000
     80      -0.3264      1.00000
     81      -0.2585      1.00000
     82      -0.2058      1.00000
     83      -0.1632      1.00000
     84      -0.1190      1.00000
     85      -0.0748      1.00000
     86       0.0415      1.00000
     87       0.0672      1.00000
     88       0.0997      1.00000
     89       0.1777      1.00000
     90       0.2376      1.00000
     91       0.2895      1.00000
     92       0.3945      1.00000
     93       0.4301      1.00000
     94       0.4522      1.00000
     95       0.5224      1.00000
     96       0.5326      1.00000
     97       0.6282      1.00000
     98       0.6520      1.00000
     99       0.6747      1.00000
    100       0.7442      1.00000
    101       0.8211      1.00000
    102       0.8933      1.00000
    103       0.9516      1.00000
    104       0.9961      1.00000
    105       1.1008      1.00000
    106       1.1193      1.00000
    107       1.1788      1.00000
    108       1.2080      1.00000
    109       1.3737      1.00000
    110       1.4517      1.00000
    111       1.5314      1.00000
    112       1.6703      1.00000
    113       1.9070      1.00000
    114       1.9353      1.00000
    115       2.0611      1.00000
    116       2.0972      1.00000
    117       2.1958      1.00000
    118       2.3397      1.00000
    119       2.3863      1.00000
    120       2.5767      1.00000
    121       4.0588      0.00000
    122       4.5091      0.00000
    123       4.6082      0.00000
    124       4.7162      0.00000
    125       4.9218      0.00000
    126       4.9855      0.00000
    127       5.1002      0.00000
    128       5.3035      0.00000
    129       5.3861      0.00000
    130       5.4154      0.00000
    131       5.6658      0.00000
    132       5.8382      0.00000
    133       6.0028      0.00000
    134       6.1021      0.00000
    135       6.2504      0.00000
    136       6.2828      0.00000
    137       6.3175      0.00000
    138       6.4020      0.00000
    139       6.4162      0.00000
    140       6.5013      0.00000
    141       6.5924      0.00000
    142       6.7181      0.00000
    143       6.8353      0.00000
    144       6.8899      0.00000

 k-point   6 :       0.5000    0.0000    0.0000
  band No.  band energies     occupation 
      1     -15.3067      1.00000
      2     -15.0761      1.00000
      3     -14.9913      1.00000
      4     -14.8578      1.00000
      5     -14.8551      1.00000
      6     -14.7662      1.00000
      7     -14.6539      1.00000
      8     -14.5433      1.00000
      9     -14.4926      1.00000
     10     -14.4811      1.00000
     11     -14.4392      1.00000
     12     -14.3225      1.00000
     13     -14.3001      1.00000
     14     -14.1766      1.00000
     15     -14.1328      1.00000
     16     -14.0869      1.00000
     17     -14.0760      1.00000
     18     -14.0283      1.00000
     19     -14.0230      1.00000
     20     -13.9384      1.00000
     21     -13.9284      1.00000
     22     -13.9092      1.00000
     23     -13.8589      1.00000
     24     -13.7606      1.00000
     25      -3.7566      1.00000
     26      -3.3938      1.00000
     27      -3.2248      1.00000
     28      -3.1894      1.00000
     29      -3.1065      1.00000
     30      -2.9452      1.00000
     31      -2.8892      1.00000
     32      -2.8798      1.00000
     33      -2.8222      1.00000
     34      -2.8064      1.00000
     35      -2.7218      1.00000
     36      -2.7145      1.00000
     37      -2.4335      1.00000
     38      -2.4202      1.00000
     39      -2.3870      1.00000
     40      -2.3065      1.00000
     41      -2.1638      1.00000
     42      -2.1278      1.00000
     43      -1.9739      1.00000
     44      -1.8869      1.00000
     45      -1.8795      1.00000
     46      -1.8342      1.00000
     47      -1.7821      1.00000
     48      -1.7819      1.00000
     49      -1.7284      1.00000
     50      -1.6931      1.00000
     51      -1.5594      1.00000
     52      -1.5406      1.00000
     53      -1.5244      1.00000
     54      -1.4044      1.00000
     55      -1.3698      1.00000
     56      -1.3385      1.00000
     57      -1.3223      1.00000
     58      -1.2785      1.00000
     59      -1.2615      1.00000
     60      -1.1839      1.00000
     61      -1.1804      1.00000
     62      -1.1463      1.00000
     63      -1.0583      1.00000
     64      -1.0214      1.00000
     65      -1.0072      1.00000
     66      -0.9580      1.00000
     67      -0.9269      1.00000
     68      -0.8962      1.00000
     69      -0.7950      1.00000
     70      -0.7399      1.00000
     71      -0.7315      1.00000
     72      -0.6985      1.00000
     73      -0.6255      1.00000
     74      -0.6189      1.00000
     75      -0.5898      1.00000
     76      -0.5624      1.00000
     77      -0.5609      1.00000
     78      -0.5255      1.00000
     79      -0.4282      1.00000
     80      -0.3335      1.00000
     81      -0.3319      1.00000
     82      -0.2944      1.00000
     83      -0.2385      1.00000
     84      -0.1949      1.00000
     85      -0.1713      1.00000
     86      -0.0600      1.00000
     87      -0.0393      1.00000
     88      -0.0177      1.00000
     89       0.0249      1.00000
     90       0.0659      1.00000
     91       0.1004      1.00000
     92       0.1760      1.00000
     93       0.2144      1.00000
     94       0.2946      1.00000
     95       0.3831      1.00000
     96       0.4128      1.00000
     97       0.4899      1.00000
     98       0.5086      1.00000
     99       0.5222      1.00000
    100       0.6765      1.00000
    101       0.6864      1.00000
    102       0.8874      1.00000
    103       0.9387      1.00000
    104       1.0067      1.00000
    105       1.0359      1.00000
    106       1.0731      1.00000
    107       1.0981      1.00000
    108       1.1238      1.00000
    109       1.2879      1.00000
    110       1.2922      1.00000
    111       1.3972      1.00000
    112       1.5647      1.00000
    113       1.9674      1.00000
    114       2.0153      1.00000
    115       2.0996      1.00000
    116       2.1380      1.00000
    117       2.1922      1.00000
    118       2.3558      1.00000
    119       2.4730      1.00000
    120       2.4764      1.00000
    121       4.1267      0.00000
    122       4.6157      0.00000
    123       4.7404      0.00000
    124       4.8059      0.00000
    125       4.8906      0.00000
    126       5.0165      0.00000
    127       5.1674      0.00000
    128       5.2369      0.00000
    129       5.3520      0.00000
    130       5.4176      0.00000
    131       5.7019      0.00000
    132       5.7714      0.00000
    133       6.0807      0.00000
    134       6.1400      0.00000
    135       6.2491      0.00000
    136       6.2607      0.00000
    137       6.3030      0.00000
    138       6.4750      0.00000
    139       6.5332      0.00000
    140       6.5386      0.00000
    141       6.6123      0.00000
    142       6.7224      0.00000
    143       6.7490      0.00000
    144       6.7765      0.00000

 k-point   7 :       0.0000    0.3333    0.0000
  band No.  band energies     occupation 
      1     -16.1673      1.00000
      2     -15.9049      1.00000
      3     -15.6714      1.00000
      4     -15.5503      1.00000
      5     -15.2290      1.00000
      6     -15.1127      1.00000
      7     -15.0694      1.00000
      8     -15.0013      1.00000
      9     -14.9174      1.00000
     10     -14.8610      1.00000
     11     -14.7827      1.00000
     12     -14.6890      1.00000
     13     -14.6507      1.00000
     14     -14.5750      1.00000
     15     -14.5541      1.00000
     16     -14.5247      1.00000
     17     -14.4648      1.00000
     18     -14.3872      1.00000
     19     -14.1735      1.00000
     20     -14.0936      1.00000
     21     -13.9939      1.00000
     22     -13.9320      1.00000
     23     -13.8657      1.00000
     24     -13.7284      1.00000
     25      -4.2043      1.00000
     26      -3.6794      1.00000
     27      -3.5248      1.00000
     28      -3.4282      1.00000
     29      -3.4047      1.00000
     30      -3.3786      1.00000
     31      -2.9673      1.00000
     32      -2.8595      1.00000
     33      -2.7321      1.00000
     34      -2.6145      1.00000
     35      -2.5128      1.00000
     36      -2.3904      1.00000
     37      -2.3581      1.00000
     38      -2.3565      1.00000
     39      -2.2605      1.00000
     40      -2.2190      1.00000
     41      -2.0809      1.00000
     42      -1.9965      1.00000
     43      -1.8935      1.00000
     44      -1.7953      1.00000
     45      -1.7600      1.00000
     46      -1.7580      1.00000
     47      -1.7354      1.00000
     48      -1.6508      1.00000
     49      -1.5862      1.00000
     50      -1.5521      1.00000
     51      -1.5459      1.00000
     52      -1.5248      1.00000
     53      -1.4442      1.00000
     54      -1.3994      1.00000
     55      -1.3942      1.00000
     56      -1.3584      1.00000
     57      -1.3230      1.00000
     58      -1.2628      1.00000
     59      -1.1384      1.00000
     60      -1.0463      1.00000
     61      -0.9810      1.00000
     62      -0.9705      1.00000
     63      -0.9592      1.00000
     64      -0.8345      1.00000
     65      -0.7892      1.00000
     66      -0.7861      1.00000
     67      -0.6342      1.00000
     68      -0.6287      1.00000
     69      -0.5837      1.00000
     70      -0.5727      1.00000
     71      -0.5464      1.00000
     72      -0.5137      1.00000
[...]
 21        0.002   0.078   0.000   0.081
 22       -0.006   0.024   0.000   0.018
 23        0.005  -0.019   0.000  -0.015
 24       -0.007  -0.064   0.000  -0.071
 25        0.001   0.140   0.000   0.140
 26        0.000  -0.022   0.000  -0.022
 27        0.000   0.104   0.000   0.105
 28       -0.003  -0.051   0.000  -0.054
 29        0.005   0.075   0.000   0.080
 30        0.001  -0.015   0.000  -0.014
 31       -0.004   0.042   0.000   0.038
 32        0.002  -0.035   0.000  -0.034
 33       -0.004   0.036   0.000   0.032
 34        0.003  -0.007   0.000  -0.004
 35        0.006   0.076   0.000   0.082
 36       -0.003  -0.049   0.000  -0.051
 37       -0.000   0.001   0.000   0.000
 38       -0.001   0.000   0.000  -0.000
 39        0.001   0.002   0.000   0.003
 40       -0.000   0.001   0.000   0.000
 41       -0.002  -0.002   0.000  -0.004
 42        0.000   0.001   0.000   0.001
 43       -0.001  -0.000   0.000  -0.001
 44       -0.001   0.000   0.000  -0.000
 45       -0.000   0.001   0.000   0.001
 46       -0.002  -0.001   0.000  -0.004
------------------------------------------------
tot        0.054   0.433   1.215   1.702
 
    CHARGE:  cpu time    0.43: real time    0.43
    FORLOC:  cpu time    0.00: real time    0.00
    FORNL :  cpu time    7.99: real time    7.99
    STRESS:  cpu time    9.34: real time    9.35
    FORCOR:  cpu time    0.05: real time    0.05
    FORHAR:  cpu time    0.01: real time    0.01

  FORCE on cell =-STRESS in cart. coord.  units (eV):
  Direction    XX          YY          ZZ          XY          YZ          ZX
  --------------------------------------------------------------------------------------
  Alpha Z   784.76800   784.76800   784.76800
  Ewald   -4418.70771 -1978.11456 -5321.10521     0.00000    -0.00000  -406.30678
  Hartree  1478.05432  2768.64757   535.81521     0.00000     0.00000  -248.76157
  E(xc)   -1155.21891 -1156.32099 -1156.30113    -0.00000     0.00000    -0.22116
  Local    -472.49199 -4083.69013  1414.24214    -0.00000    -0.00000   644.77042
  n-local  -808.38374  -765.40611  -792.23354     0.00281    -0.01018    -4.80184
  augment   542.26190   521.51949   534.57582     0.00000    -0.00000     2.38456
  Kinetic  4044.90343  3902.18479  3996.34493    -0.00181     0.02814    12.63625
  Fock        0.00000     0.00000     0.00000     0.00000     0.00000     0.00000
  -------------------------------------------------------------------------------------
  Total      -4.81471    -6.41194    -3.89377     0.00000     0.00000    -0.30012
  in kB     -16.64179   -22.16256   -13.45861     0.00000     0.00000    -1.03736
  external pressure =      -17.42 kB  Pullay stress =        0.00 kB


 VOLUME and BASIS-vectors are now :
 -----------------------------------------------------------------------------
  energy-cutoff  :      520.00
  volume of cell :      463.53
      direct lattice vectors                 reciprocal lattice vectors
     0.000000000  2.871842421  0.000000000     0.000000000  0.348208520  0.000000000
    10.447198417  0.000000000  0.276697749     0.095786834  0.000000000 -0.002544525
    -0.410701704  0.000000000-15.460570852     0.001714296  0.000000000 -0.064726204

  length of vectors
     2.871842421 10.450861993 15.466024924     0.348208520  0.095820625  0.064748902


 FORCES acting on ions
    electron-ion (+dipol)            ewald-force                    non-local-force                 convergence-correction
 -----------------------------------------------------------------------------------------------
   -.416E+02 0.110E-15 -.791E+01   0.418E+02 -.865E-14 0.809E+01   -.185E+00 0.117E-19 -.330E+00   -.549E-01 0.689E-13 0.201E+00
   -.787E+01 0.157E-13 -.165E+02   0.791E+01 -.560E-14 0.175E+02   -.213E+00 -.355E-19 -.123E+01   0.155E+00 0.281E-13 0.266E+00
   -.260E+02 0.384E-14 -.168E+00   0.259E+02 0.182E-13 0.376E+00   0.319E+00 -.289E-20 0.720E+00   -.282E+00 0.217E-12 -.973E+00
   -.335E+02 0.186E-13 0.340E+01   0.330E+02 -.411E-13 -.443E+01   0.711E-01 0.108E-19 0.264E+00   0.367E+00 0.590E-13 0.718E+00
   -.326E+02 0.106E-13 0.131E+02   0.331E+02 0.919E-14 -.140E+02   -.652E+00 -.145E-19 0.113E+01   0.178E+00 -.323E-12 -.361E+00
   -.385E+02 -.568E-14 -.347E+02   0.388E+02 0.477E-13 0.349E+02   -.566E+00 0.110E-19 -.159E+00   0.196E+00 0.171E-12 -.117E+00
   0.211E+02 0.500E-13 -.106E+02   -.207E+02 0.193E-14 0.114E+02   -.649E-02 -.119E-19 -.126E+01   -.409E+00 0.719E-13 0.535E+00
   -.172E+02 0.456E-13 0.510E+02   0.173E+02 -.275E-13 -.520E+02   -.278E+00 0.876E-20 0.168E+01   0.166E+00 0.117E-14 -.723E+00
   0.336E+02 0.461E-13 0.417E+02   -.322E+02 -.951E-14 -.426E+02   -.130E+01 -.613E-20 -.116E-01   -.150E+00 -.992E-14 0.873E+00
   0.440E+02 0.481E-13 0.185E+02   -.458E+02 0.312E-13 -.199E+02   0.141E+01 0.262E-19 0.685E+00   0.357E+00 0.575E-13 0.614E+00
   0.464E+02 0.474E-13 -.150E+01   -.461E+02 0.302E-13 0.191E+01   -.309E+00 -.128E-19 0.577E-01   0.353E-01 -.371E-14 -.442E+00
   0.615E+02 0.547E-13 -.551E+02   -.631E+02 -.320E-14 0.541E+02   0.146E+01 -.436E-19 0.745E+00   0.115E+00 -.298E-12 0.298E+00
   0.482E+02 0.675E-13 0.887E+02   -.548E+02 -.140E-13 -.996E+02   0.586E+01 0.151E-18 0.101E+02   0.607E+00 0.997E-12 0.678E+00
   0.608E+01 0.435E-13 0.818E+02   -.850E+01 -.167E-13 -.926E+02   0.202E+01 -.243E-19 0.966E+01   0.343E+00 0.933E-13 0.889E+00
   0.776E+02 0.722E-13 0.941E+02   -.860E+02 -.215E-14 -.105E+03   0.774E+01 -.314E-19 0.106E+02   0.484E+00 0.532E-13 0.478E+00
   -.281E+02 0.474E-13 -.361E+02   0.290E+02 -.581E-14 0.435E+02   -.116E+01 0.610E-20 -.737E+01   0.566E-01 -.172E-13 0.207E+00
   0.217E+02 0.862E-13 -.626E+02   -.280E+02 0.337E-13 0.720E+02   0.570E+01 -.121E-19 -.909E+01   0.420E+00 -.302E-13 -.150E+00
   -.584E+02 0.553E-13 -.433E+02   0.615E+02 0.120E-13 0.506E+02   -.374E+01 0.333E-19 -.577E+01   0.637E+00 0.322E-13 -.145E+01
   -.878E+02 0.157E-12 -.157E+03   0.967E+02 -.284E-14 0.170E+03   -.850E+01 0.201E-18 -.122E+02   -.281E+00 -.423E-12 -.113E+00
   -.148E+02 0.128E-12 -.457E+02   0.160E+02 0.965E-14 0.557E+02   -.132E+01 -.486E-19 -.822E+01   0.164E+00 0.104E-12 -.145E+01
   -.110E+03 0.157E-12 -.176E+03   0.120E+03 -.585E-14 0.189E+03   -.104E+02 -.370E-18 -.129E+02   -.195E-01 -.901E-12 0.110E-02
   -.246E+02 0.153E-12 0.610E+02   0.293E+02 -.229E-13 -.709E+02   -.431E+01 0.709E-19 0.857E+01   -.202E+00 0.673E-13 0.116E+01
   -.269E+02 0.166E-12 0.112E+03   0.349E+02 -.288E-13 -.124E+03   -.725E+01 0.246E-19 0.113E+02   -.632E+00 0.220E-13 -.144E-01
   -.108E+02 0.169E-12 0.607E+02   0.131E+02 0.254E-13 -.712E+02   -.201E+01 0.889E-21 0.907E+01   -.199E+00 0.198E-13 0.119E+01
   0.180E+01 0.551E-13 -.196E+03   -.250E+00 -.156E-13 0.209E+03   -.144E+01 -.635E-18 -.136E+02   0.732E-01 -.241E-13 -.514E-02
   -.357E+02 0.612E-13 -.127E+03   0.422E+02 -.182E-13 0.138E+03   -.595E+01 0.132E-19 -.943E+01   -.482E+00 -.704E-14 -.146E+01
   0.457E+01 0.543E-13 -.231E+03   -.246E+01 -.188E-13 0.244E+03   -.128E+01 0.177E-18 -.123E+02   -.650E+00 0.214E-12 -.204E+00
   -.393E+02 0.631E-13 0.153E+03   0.450E+02 -.736E-14 -.163E+03   -.495E+01 0.283E-19 0.921E+01   -.621E+00 -.915E-14 0.110E+01
   -.769E+02 0.476E-13 0.191E+03   0.852E+02 0.261E-13 -.204E+03   -.700E+01 0.659E-20 0.117E+02   -.101E+01 -.153E-14 0.279E+00
   -.433E+02 0.441E-13 0.156E+03   0.505E+02 -.130E-13 -.169E+03   -.675E+01 -.866E-20 0.120E+02   -.336E+00 0.101E-12 0.887E+00
   0.775E+02 0.129E-12 0.224E+03   -.858E+02 0.491E-13 -.236E+03   0.757E+01 -.237E-19 0.112E+02   0.625E+00 -.392E-13 0.998E+00
   0.607E+02 0.157E-12 0.159E+03   -.691E+02 -.126E-13 -.169E+03   0.742E+01 -.131E-18 0.895E+01   0.863E+00 0.642E-12 0.731E+00
   0.876E+02 0.159E-12 0.183E+03   -.965E+02 -.106E-13 -.194E+03   0.868E+01 -.940E-19 0.111E+02   0.122E+00 -.376E-13 -.332E+00
   0.417E+02 0.149E-12 -.152E+03   -.496E+02 0.955E-14 0.163E+03   0.730E+01 -.755E-19 -.979E+01   0.489E+00 -.459E-13 -.419E+00
   0.658E+02 0.167E-12 -.185E+03   -.736E+02 -.843E-14 0.197E+03   0.713E+01 -.300E-22 -.110E+02   0.517E+00 0.335E-14 -.504E+00
   0.487E+02 0.155E-12 -.155E+03   -.553E+02 -.147E-13 0.166E+03   0.629E+01 0.107E-19 -.952E+01   0.192E+00 -.793E-12 -.133E+01
   0.795E+01 -.141E-14 0.628E+00   -.814E+01 0.260E-14 -.539E+00   0.183E+00 -.555E-20 -.146E+00   -.623E-02 0.990E-15 0.564E-01
   0.731E+01 0.316E-15 -.107E+01   -.754E+01 0.486E-14 0.927E+00   0.220E+00 0.112E-19 0.139E+00   -.743E-02 0.925E-15 -.101E-01
   0.107E+02 0.369E-14 0.560E+00   -.996E+01 -.161E-14 -.432E-01   -.758E+00 0.427E-20 -.558E+00   0.217E-01 -.209E-14 0.434E-01
   0.633E+01 0.188E-14 0.509E+00   -.710E+01 -.313E-14 -.116E+01   0.737E+00 -.475E-21 0.798E+00   0.436E-01 -.849E-16 -.135E+00
   -.936E+01 -.546E-14 -.229E+01   0.966E+01 -.458E-14 0.263E+01   -.172E+00 0.536E-21 -.358E+00   -.619E-01 -.218E-15 0.496E-01
   0.221E+01 -.161E-14 0.113E+02   -.186E+01 0.285E-14 -.119E+02   -.394E+00 -.129E-19 0.619E+00   -.160E-01 0.253E-15 -.100E-01
   -.965E+01 -.292E-14 -.397E+01   0.101E+02 -.153E-14 0.404E+01   -.392E+00 0.419E-20 0.145E-01   0.365E-02 -.450E-15 -.553E-01
   -.119E+02 -.125E-14 0.836E+01   0.116E+02 -.901E-15 -.762E+01   0.206E+00 0.143E-20 -.776E+00   0.184E-01 0.310E-15 0.506E-01
   -.493E+01 -.482E-14 -.170E+01   0.457E+01 0.114E-14 0.117E+01   0.403E+00 -.250E-19 0.684E+00   -.225E-01 -.724E-16 -.121E+00
   0.554E+01 -.332E-14 -.174E+02   -.506E+01 0.188E-14 0.176E+02   -.534E+00 -.631E-20 -.222E+00   0.708E-02 0.140E-15 0.521E-01
 -----------------------------------------------------------------------------------------------
   -.681E+00 0.286E-11 -.670E+01   -.266E-14 -.847E-14 -.128E-12   -.115E+01 -.819E-18 0.473E+01   0.181E+01 0.598E-13 0.198E+01
 
 
 POSITION                                       TOTAL-FORCE (eV/Angst)
 -----------------------------------------------------------------------------------
      1.20074      0.71796    -10.00152         0.018004     -0.000000      0.053599
      1.49880      0.71796     -4.81785        -0.026272      0.000000      0.028816
      0.64258      0.71796    -15.19277        -0.013673     -0.000000     -0.045346
      6.43614      0.71796     -7.83552        -0.048792      0.000000     -0.049299
      6.59694      0.71796     -2.67385         0.030565      0.000000     -0.064842
      6.05648      0.71796    -13.05235        -0.067553      0.000000     -0.008162
      9.18234      2.15388     -4.87418        -0.012150      0.000000      0.064863
      8.64045      2.15388     -0.01881        -0.051134      0.000000     -0.008097
      8.74316      2.15388    -10.07057         0.013459      0.000000     -0.029101
      3.68996      2.15388     -7.61876         0.024206      0.000000     -0.042508
      3.63577      2.15388     -2.28130         0.012485      0.000000      0.024140
      3.31476      2.15388    -12.60082         0.030194      0.000000      0.026294
      2.77294      0.71796     -8.48030        -0.196844     -0.000000     -0.077447
      3.22656      0.71796     -3.51048        -0.052873     -0.000000     -0.226081
      2.55583      0.71796    -13.64734        -0.192620      0.000000     -0.174785
      8.09692      0.71796     -8.92928        -0.117375      0.000000      0.223047
      8.20112      0.71796     -4.07079        -0.168254      0.000000      0.146074
      7.57867      0.71796    -14.29026        -0.037242      0.000000      0.121160
      7.14375      2.15388     -6.75832         0.119810      0.000000      0.161700
      6.98141      2.15388     -1.39979         0.072285      0.000000      0.274499
      6.80369      2.15388    -12.03282         0.150506     -0.000000      0.142997
      2.25256      2.15388     -5.93252         0.156825     -0.000000     -0.180394
      1.80870      2.15388     -0.79298         0.134186     -0.000000     -0.122825
      1.69508      2.15388    -11.20630         0.129083     -0.000000     -0.285678
      4.76712      0.71796     -6.73644         0.183196      0.000000      0.180344
      4.29887      0.71796     -1.14006         0.056990      0.000000      0.217425
      4.46648      0.71796    -11.82229         0.180054     -0.000000      0.246381
      9.86959      0.71796     -6.04373         0.133988      0.000000     -0.329871
      9.65579      0.71796     -0.81245         0.245674     -0.000000     -0.192466
      9.35002      0.71796    -11.20996         0.060811      0.000000     -0.222143
      5.65406      2.15388     -8.83361        -0.092899      0.000000     -0.219968
      5.79318      2.15388     -3.73932        -0.125941     -0.000000     -0.193386
      5.21445      2.15388    -14.04531        -0.132123      0.000000     -0.245528
      0.27705      2.15388     -9.03559        -0.135250      0.000000      0.228575
      0.55021      2.15388     -3.95772        -0.149775     -0.000000      0.188049
     -0.07744      2.15388    -14.07448        -0.113525     -0.000000      0.296711
      1.05893      0.71796     -7.39689        -0.010402      0.000000     -0.000334
      0.63714      0.71796    -12.60655        -0.014202      0.000000     -0.016104
      6.56202      0.71796     -5.22163         0.000715      0.000000      0.002201
      5.96111      0.71796     -0.19108         0.003534      0.000000      0.012589
      9.14271      2.15388     -7.43436         0.069069      0.000000      0.029143
      0.26895      2.15388     -2.13190        -0.066057      0.000000      0.006553
      8.72494      2.15388    -12.74215         0.025024      0.000000      0.036002
      4.09070      2.15388     -4.84219        -0.003088      0.000000      0.009940
      3.18935      2.15388    -15.22232         0.021518      0.000000      0.030354
      5.35706      2.15388    -10.66709        -0.044135      0.000000     -0.017090
 -----------------------------------------------------------------------------------
    total drift:                               -0.014385      0.000000      0.009442


--------------------------------------------------------------------------------------------------------



  FREE ENERGIE OF THE ION-ELECTRON SYSTEM (eV)
  ---------------------------------------------------
  free  energy   TOTEN  =      -304.29796168 eV

  energy  without entropy=     -304.29796168  energy(sigma->0) =     -304.29796168
 


--------------------------------------------------------------------------------------------------------


    POTLOK:  cpu time    0.06: real time    0.06


--------------------------------------------------------------------------------------------------------


 writing wavefunctions
     LOOP+:  cpu time  175.52: real time  208.81
    4ORBIT:  cpu time    0.00: real time    0.00
 


 total charge     
 
# of ion     s       p       d       tot
----------------------------------------
  1        0.303   0.409   4.822   5.534
  2        0.308   0.420   4.838   5.566
  3        0.307   0.414   4.834   5.556
  4        0.340   0.527   4.779   5.647
  5        0.300   0.408   4.809   5.517
  6        0.344   0.532   4.804   5.680
  7        0.309   0.419   4.833   5.561
  8        0.300   0.406   4.813   5.518
  9        0.306   0.406   4.821   5.533
 10        0.300   0.411   4.818   5.529
 11        0.303   0.407   4.818   5.527
 12        0.297   0.407   4.825   5.529
 13        1.560   3.476   0.000   5.036
 14        1.557   3.476   0.000   5.033
 15        1.561   3.461   0.000   5.021
 16        1.558   3.466   0.000   5.024
 17        1.561   3.472   0.000   5.033
 18        1.559   3.464   0.000   5.023
 19        1.565   3.429   0.000   4.993
 20        1.554   3.473   0.000   5.027
 21        1.568   3.440   0.000   5.008
 22        1.558   3.455   0.000   5.013
 23        1.559   3.460   0.000   5.020
 24        1.556   3.469   0.000   5.025
 25        1.565   3.432   0.000   4.997
 26        1.556   3.477   0.000   5.033
 27        1.560   3.464   0.000   5.024
 28        1.554   3.474   0.000   5.028
 29        1.559   3.467   0.000   5.026
 30        1.559   3.461   0.000   5.020
 31        1.568   3.461   0.000   5.028
 32        1.558   3.451   0.000   5.009
 33        1.566   3.443   0.000   5.009
 34        1.558   3.452   0.000   5.010
 35        1.560   3.492   0.000   5.053
 36        1.555   3.470   0.000   5.025
 37        0.092   0.183   0.000   0.275
 38        0.085   0.172   0.000   0.256
 39        0.087   0.179   0.000   0.266
 40        0.096   0.201   0.000   0.297
 41        0.088   0.181   0.000   0.269
 42        0.103   0.209   0.000   0.311
 43        0.090   0.181   0.000   0.271
 44        0.084   0.168   0.000   0.252
 45        0.089   0.184   0.000   0.272
 46        0.105   0.216   0.000   0.321
------------------------------------------------
tot       42.067  90.123  57.816 190.005
 


 magnetization (x)
 
# of ion     s       p       d       tot
----------------------------------------
  1        0.038   0.032   3.778   3.847
  2       -0.038  -0.034  -3.812  -3.884
  3        0.042   0.032   3.817   3.891
  4       -0.025  -0.034  -3.179  -3.237
  5        0.037   0.032   3.772   3.841
  6       -0.026  -0.035  -3.199  -3.259
  7        0.040   0.038   3.816   3.894
  8       -0.034  -0.033  -3.786  -3.853
  9        0.045   0.030   3.787   3.862
 10       -0.037  -0.029  -3.769  -3.835
 11        0.044   0.029   3.775   3.848
 12       -0.032  -0.032  -3.785  -3.850
 13        0.007   0.070   0.000   0.078
 14       -0.007  -0.066   0.000  -0.073
 15        0.005   0.063   0.000   0.068
 16       -0.001  -0.003   0.000  -0.004
 17        0.006  -0.016   0.000  -0.010
 18        0.001   0.076   0.000   0.077
 19        0.002   0.071   0.000   0.074
 20       -0.007  -0.074   0.000  -0.080
 21        0.002   0.078   0.000   0.081
 22       -0.006   0.024   0.000   0.018
 23        0.005  -0.019   0.000  -0.015
 24       -0.007  -0.064   0.000  -0.071
 25        0.001   0.140   0.000   0.140
 26        0.000  -0.022   0.000  -0.022
 27        0.000   0.104   0.000   0.105
 28       -0.003  -0.051   0.000  -0.054
 29        0.005   0.075   0.000   0.080
 30        0.001  -0.015   0.000  -0.014
 31       -0.004   0.042   0.000   0.038
 32        0.002  -0.035   0.000  -0.034
 33       -0.004   0.036   0.000   0.032
 34        0.003  -0.007   0.000  -0.004
 35        0.006   0.076   0.000   0.082
 36       -0.003  -0.049   0.000  -0.051
 37       -0.000   0.001   0.000   0.000
 38       -0.001   0.000   0.000  -0.000
 39        0.001   0.002   0.000   0.003
 40       -0.000   0.001   0.000   0.000
 41       -0.002  -0.002   0.000  -0.004
 42        0.000   0.001   0.000   0.001
 43       -0.001  -0.000   0.000  -0.001
 44       -0.001   0.000   0.000  -0.000
 45       -0.000   0.001   0.000   0.001
 46       -0.002  -0.001   0.000  -0.004
------------------------------------------------
tot        0.054   0.433   1.215   1.702
 
 BZINTS: Fermi energy:  3.129260;238.000000 electrons
         Band energy:-801.959090;  BLOECHL correction: -0.001050

 total amount of memory used by VASP on root node   115881. kBytes
========================================================================

   base      :      30000. kBytes
   nonl-proj :      35088. kBytes
   fftplans  :       1421. kBytes
   grid      :       3657. kBytes
   one-center:        373. kBytes
   wavefun   :      45342. kBytes
 
  
  
 General timing and accounting informations for this job:
 ========================================================
  
                  Total CPU time used (sec):      186.886
                            User time (sec):      185.407
                          System time (sec):        1.479
                         Elapsed time (sec):      229.703
  
                   Maximum memory used (kb):      245976.
                   Average memory used (kb):           0.
  
                          Minor page faults:        17035
                          Major page faults:            0
                 Voluntary context switches:         5859
