 vasp.5.3.3 18Dez12 (build May 12 2016 12:04:25) complex                        
  
 executed on             LinuxIFC date 2019.05.18  10:39:54
 running on   32 total cores
 distrk:  each k-point on   32 cores,    1 groups
 distr:  one band on NCORES_PER_BAND=   4 cores,    8 groups


--------------------------------------------------------------------------------------------------------


 INCAR:
 POTCAR:    PAW_PBE O 08Apr2002                   
 POTCAR:    PAW_PBE Mn 06Sep2000                  
 POTCAR:    PAW_PBE O 08Apr2002                   
  local pseudopotential read in
  partial core-charges read in
  partial kinetic energy density read in
  kinetic energy density of atom read in
  atomic valenz-charges read in
  non local Contribution for L=           0  read in
    real space projection operators read in
  non local Contribution for L=           0  read in
    real space projection operators read in
  non local Contribution for L=           1  read in
    real space projection operators read in
  non local Contribution for L=           1  read in
    real space projection operators read in
    PAW grid and wavefunctions read in
 
   number of l-projection  operators is LMAX  =           4
   number of lm-projection operators is LMMAX =           8
 
 POTCAR:    PAW_PBE Mn 06Sep2000                  
  local pseudopotential read in
  partial core-charges read in
  partial kinetic energy density read in
  atomic valenz-charges read in
  non local Contribution for L=           2  read in
    real space projection operators read in
  non local Contribution for L=           2  read in
    real space projection operators read in
  non local Contribution for L=           0  read in
    real space projection operators read in
  non local Contribution for L=           0  read in
    real space projection operators read in
  non local Contribution for L=           1  read in
    real space projection operators read in
  non local Contribution for L=           1  read in
    real space projection operators read in
    PAW grid and wavefunctions read in
 
   number of l-projection  operators is LMAX  =           6
   number of lm-projection operators is LMMAX =          18
 

 ----------------------------------------------------------------------------- 
|                                                                             |
|  ADVICE TO THIS USER RUNNING 'VASP/VAMP'   (HEAR YOUR MASTER'S VOICE ...):  |
|                                                                             |
|      You enforced a specific xc-type in the INCAR file,                     |
|      a different type was found on the POTCAR file                          |
|          I HOPE YOU KNOW, WHAT YOU ARE  DOING                               |
|                                                                             |
 ----------------------------------------------------------------------------- 

  PAW_PBE O 08Apr2002                   :
 energy of atom  1       EATOM= -432.3788
 kinetic energy error for atom=    0.0208 (will be added to EATOM!!)
  PAW_PBE Mn 06Sep2000                  :
 energy of atom  2       EATOM= -416.7541
 kinetic energy error for atom=    0.0024 (will be added to EATOM!!)
 
 
 POSCAR: (Mn O2)2  (P4_2/mnm) ~  (Pearson #311740
  positions in direct lattice
  velocities in cartesian coordinates
 exchange correlation table for  LEXCH =       14
   RHO(1)=    0.500       N(1)  =     2000
   RHO(2)=  100.500       N(2)  =     4000
 


--------------------------------------------------------------------------------------------------------


 ion  position               nearest neighbor table
   1  0.303  0.303  0.000-   6 1.87   6 1.87   5 1.88
   2  0.803  0.197  0.500-   5 1.87   5 1.87   6 1.88
   3  0.197  0.803  0.500-   5 1.87   5 1.87   6 1.88
   4  0.697  0.697  0.000-   6 1.87   6 1.87   5 1.88
   5  0.000  0.000  0.000-   2 1.87   3 1.87   2 1.87   3 1.87   1 1.88   4 1.88
   6  0.500  0.500  0.500-   1 1.87   4 1.87   1 1.87   4 1.87   3 1.88   2 1.88
 
  LATTYP: Found a simple tetragonal cell.
 ALAT       =     4.3783520478
 C/A-ratio  =     0.6489002930
  
  Lattice vectors:
  
 A1 = (   4.3783520478,   0.0000000000,   0.0000000000)
 A2 = (   0.0000000000,   4.3783520478,   0.0000000000)
 A3 = (   0.0000000000,   0.0000000000,   2.8411139264)


Analysis of symmetry for initial positions (statically):
=====================================================================
 Subroutine PRICEL returns:
 Original cell was already a primitive cell.
 

 Routine SETGRP: Setting up the symmetry group for a 
 simple tetragonal supercell.


 Subroutine GETGRP returns: Found 16 space group operations
 (whereof  8 operations were pure point group operations)
 out of a pool of 16 trial point group operations.


The static configuration has the point symmetry D_2h.
 The point group associated with its full space group is D_4h.


Analysis of symmetry for dynamics (positions and initial velocities):
=====================================================================
 Subroutine PRICEL returns:
 Original cell was already a primitive cell.
 

 Routine SETGRP: Setting up the symmetry group for a 
 simple tetragonal supercell.


 Subroutine GETGRP returns: Found 16 space group operations
 (whereof  8 operations were pure point group operations)
 out of a pool of 16 trial point group operations.


The dynamic configuration has the point symmetry D_2h.
 The point group associated with its full space group is D_4h.


Analysis of magnetic symmetry:
=====================================================================

 Subroutine MAGSYM returns: Found 16 space group operations
 (whereof  8 operations were pure point group operations)
 out of a pool of 16 trial space group operations
 (whereof  8 operations were pure point group operations)
 and found also     1 'primitive' translations


The magnetic configuration has the point symmetry D_2h.
 The point group associated with its full space group is D_4h.


 irot  :   1
 --------------------------------------------------------------------
 isymop:   1   0   0
           0   1   0
           0   0   1

 gtrans:     0.0000000     0.0000000     0.0000000

 ptrans:     0.0000000     0.0000000     0.0000000
 rotmap:
 (   1->   1)  (   2->   2)  (   3->   3)  (   4->   4)  (   5->   5) 
 (   6->   6) 


 irot  :   2
 --------------------------------------------------------------------
 isymop:  -1   0   0
           0  -1   0
           0   0  -1

 gtrans:     0.0000000     0.0000000     0.0000000

 ptrans:     0.0000000     0.0000000     0.0000000
 rotmap:
 (   1->   4)  (   2->   3)  (   3->   2)  (   4->   1)  (   5->   5) 
 (   6->   6) 


 irot  :   3
 --------------------------------------------------------------------
 isymop:  -1   0   0
           0  -1   0
           0   0   1

 gtrans:     0.0000000     0.0000000     0.0000000

 ptrans:     0.0000000     0.0000000     0.0000000
 rotmap:
 (   1->   4)  (   2->   3)  (   3->   2)  (   4->   1)  (   5->   5) 
 (   6->   6) 


 irot  :   4
 --------------------------------------------------------------------
 isymop:   1   0   0
           0   1   0
           0   0  -1

 gtrans:     0.0000000     0.0000000     0.0000000

 ptrans:     0.0000000     0.0000000     0.0000000
 rotmap:
 (   1->   1)  (   2->   2)  (   3->   3)  (   4->   4)  (   5->   5) 
 (   6->   6) 


 irot  :   5
 --------------------------------------------------------------------
 isymop:   0   1   0
           1   0   0
           0   0  -1

 gtrans:     0.0000000     0.0000000     0.0000000

 ptrans:     0.0000000     0.0000000     0.0000000
 rotmap:
 (   1->   1)  (   2->   3)  (   3->   2)  (   4->   4)  (   5->   5) 
 (   6->   6) 


 irot  :   6
 --------------------------------------------------------------------
 isymop:   0  -1   0
          -1   0   0
           0   0   1

 gtrans:     0.0000000     0.0000000     0.0000000

 ptrans:     0.0000000     0.0000000     0.0000000
 rotmap:
 (   1->   4)  (   2->   2)  (   3->   3)  (   4->   1)  (   5->   5) 
 (   6->   6) 


 irot  :   7
 --------------------------------------------------------------------
 isymop:   0  -1   0
          -1   0   0
           0   0  -1

 gtrans:     0.0000000     0.0000000     0.0000000

 ptrans:     0.0000000     0.0000000     0.0000000
 rotmap:
 (   1->   4)  (   2->   2)  (   3->   3)  (   4->   1)  (   5->   5) 
 (   6->   6) 


 irot  :   8
 --------------------------------------------------------------------
 isymop:   0   1   0
           1   0   0
           0   0   1

 gtrans:     0.0000000     0.0000000     0.0000000

 ptrans:     0.0000000     0.0000000     0.0000000
 rotmap:
 (   1->   1)  (   2->   3)  (   3->   2)  (   4->   4)  (   5->   5) 
 (   6->   6) 


 irot  :   9
 --------------------------------------------------------------------
 isymop:   0  -1   0
           1   0   0
           0   0   1

 gtrans:     0.5000000     0.5000000     0.5000000

 ptrans:     0.0000000     0.0000000     0.0000000
 rotmap:
 (   1->   3)  (   2->   1)  (   3->   4)  (   4->   2)  (   5->   6) 
 (   6->   5) 


 irot  :  10
 --------------------------------------------------------------------
 isymop:   0   1   0
          -1   0   0
           0   0  -1

 gtrans:     0.5000000     0.5000000     0.5000000

 ptrans:     0.0000000     0.0000000     0.0000000
 rotmap:
 (   1->   2)  (   2->   4)  (   3->   1)  (   4->   3)  (   5->   6) 
 (   6->   5) 


 irot  :  11
 --------------------------------------------------------------------
 isymop:   0   1   0
          -1   0   0
           0   0   1

 gtrans:     0.5000000     0.5000000     0.5000000

 ptrans:     0.0000000     0.0000000     0.0000000
 rotmap:
 (   1->   2)  (   2->   4)  (   3->   1)  (   4->   3)  (   5->   6) 
 (   6->   5) 


 irot  :  12
 --------------------------------------------------------------------
 isymop:   0  -1   0
           1   0   0
           0   0  -1

 gtrans:     0.5000000     0.5000000     0.5000000

 ptrans:     0.0000000     0.0000000     0.0000000
 rotmap:
 (   1->   3)  (   2->   1)  (   3->   4)  (   4->   2)  (   5->   6) 
 (   6->   5) 


 irot  :  13
 --------------------------------------------------------------------
 isymop:  -1   0   0
           0   1   0
           0   0  -1

 gtrans:     0.5000000     0.5000000     0.5000000

 ptrans:     0.0000000     0.0000000     0.0000000
 rotmap:
 (   1->   3)  (   2->   4)  (   3->   1)  (   4->   2)  (   5->   6) 
 (   6->   5) 


 irot  :  14
 --------------------------------------------------------------------
 isymop:   1   0   0
           0  -1   0
           0   0   1

 gtrans:     0.5000000     0.5000000     0.5000000

 ptrans:     0.0000000     0.0000000     0.0000000
 rotmap:
 (   1->   2)  (   2->   1)  (   3->   4)  (   4->   3)  (   5->   6) 
 (   6->   5) 


 irot  :  15
 --------------------------------------------------------------------
 isymop:   1   0   0
           0  -1   0
           0   0  -1

 gtrans:     0.5000000     0.5000000     0.5000000

 ptrans:     0.0000000     0.0000000     0.0000000
 rotmap:
 (   1->   2)  (   2->   1)  (   3->   4)  (   4->   3)  (   5->   6) 
 (   6->   5) 


 irot  :  16
 --------------------------------------------------------------------
 isymop:  -1   0   0
           0   1   0
           0   0   1

 gtrans:     0.5000000     0.5000000     0.5000000

 ptrans:     0.0000000     0.0000000     0.0000000
 rotmap:
 (   1->   3)  (   2->   4)  (   3->   1)  (   4->   2)  (   5->   6) 
 (   6->   5) 
 
 
 KPOINTS: Automatic mesh                          

Automatic generation of k-mesh.
Space group operators:
 irot       det(A)        alpha          n_x          n_y          n_z        tau_x        tau_y        tau_z
    1     1.000000     0.000000     1.000000     0.000000     0.000000     0.000000     0.000000     0.000000
    2    -1.000000     0.000000     1.000000     0.000000     0.000000     0.000000     0.000000     0.000000
    3     1.000000   180.000000     0.000000     0.000000     1.000000     0.000000     0.000000     0.000000
    4    -1.000000   180.000000     0.000000     0.000000     1.000000     0.000000     0.000000     0.000000
    5     1.000000   180.000000     0.707107     0.707107     0.000000     0.000000     0.000000     0.000000
    6    -1.000000   180.000000     0.707107     0.707107     0.000000     0.000000     0.000000     0.000000
    7     1.000000   180.000000     0.707107    -0.707107     0.000000     0.000000     0.000000     0.000000
    8    -1.000000   180.000000     0.707107    -0.707107     0.000000     0.000000     0.000000     0.000000
    9     1.000000    90.000000     0.000000     0.000000    -1.000000     0.500000     0.500000     0.500000
   10    -1.000000    90.000000     0.000000     0.000000    -1.000000     0.500000     0.500000     0.500000
   11     1.000000    90.000000     0.000000     0.000000     1.000000     0.500000     0.500000     0.500000
   12    -1.000000    90.000000     0.000000     0.000000     1.000000     0.500000     0.500000     0.500000
   13     1.000000   180.000000     0.000000     1.000000     0.000000     0.500000     0.500000     0.500000
   14    -1.000000   180.000000     0.000000     1.000000     0.000000     0.500000     0.500000     0.500000
   15     1.000000   180.000000     1.000000     0.000000     0.000000     0.500000     0.500000     0.500000
   16    -1.000000   180.000000     1.000000     0.000000     0.000000     0.500000     0.500000     0.500000
 
 Subroutine IBZKPT returns following result:
 ===========================================
 
 Found     50 irreducible k-points:
 
 Following reciprocal coordinates:
            Coordinates               Weight
  0.000000  0.000000  0.000000      1.000000
  0.166667  0.000000  0.000000      4.000000
  0.333333  0.000000  0.000000      4.000000
  0.500000  0.000000  0.000000      2.000000
  0.166667  0.166667  0.000000      4.000000
  0.333333  0.166667  0.000000      8.000000
  0.500000  0.166667  0.000000      4.000000
  0.333333  0.333333  0.000000      4.000000
  0.500000  0.333333  0.000000      4.000000
  0.500000  0.500000  0.000000      1.000000
  0.000000  0.000000  0.111111      2.000000
  0.166667  0.000000  0.111111      8.000000
  0.333333  0.000000  0.111111      8.000000
  0.500000  0.000000  0.111111      4.000000
  0.166667  0.166667  0.111111      8.000000
  0.333333  0.166667  0.111111     16.000000
  0.500000  0.166667  0.111111      8.000000
  0.333333  0.333333  0.111111      8.000000
  0.500000  0.333333  0.111111      8.000000
  0.500000  0.500000  0.111111      2.000000
  0.000000  0.000000  0.222222      2.000000
  0.166667  0.000000  0.222222      8.000000
  0.333333  0.000000  0.222222      8.000000
  0.500000  0.000000  0.222222      4.000000
  0.166667  0.166667  0.222222      8.000000
  0.333333  0.166667  0.222222     16.000000
  0.500000  0.166667  0.222222      8.000000
  0.333333  0.333333  0.222222      8.000000
  0.500000  0.333333  0.222222      8.000000
  0.500000  0.500000  0.222222      2.000000
  0.000000  0.000000  0.333333      2.000000
  0.166667  0.000000  0.333333      8.000000
  0.333333  0.000000  0.333333      8.000000
  0.500000  0.000000  0.333333      4.000000
  0.166667  0.166667  0.333333      8.000000
  0.333333  0.166667  0.333333     16.000000
  0.500000  0.166667  0.333333      8.000000
  0.333333  0.333333  0.333333      8.000000
  0.500000  0.333333  0.333333      8.000000
  0.500000  0.500000  0.333333      2.000000
  0.000000  0.000000  0.444444      2.000000
  0.166667  0.000000  0.444444      8.000000
  0.333333  0.000000  0.444444      8.000000
  0.500000  0.000000  0.444444      4.000000
  0.166667  0.166667  0.444444      8.000000
  0.333333  0.166667  0.444444     16.000000
  0.500000  0.166667  0.444444      8.000000
  0.333333  0.333333  0.444444      8.000000
  0.500000  0.333333  0.444444      8.000000
  0.500000  0.500000  0.444444      2.000000
 
 Following cartesian coordinates:
            Coordinates               Weight
  0.000000  0.000000  0.000000      1.000000
  0.038066  0.000000  0.000000      4.000000
  0.076132  0.000000  0.000000      4.000000
  0.114198  0.000000  0.000000      2.000000
  0.038066  0.038066  0.000000      4.000000
  0.076132  0.038066  0.000000      8.000000
  0.114198  0.038066  0.000000      4.000000
  0.076132  0.076132  0.000000      4.000000
  0.114198  0.076132  0.000000      4.000000
  0.114198  0.114198  0.000000      1.000000
  0.000000  0.000000  0.039108      2.000000
  0.038066  0.000000  0.039108      8.000000
  0.076132  0.000000  0.039108      8.000000
  0.114198  0.000000  0.039108      4.000000
  0.038066  0.038066  0.039108      8.000000
  0.076132  0.038066  0.039108     16.000000
  0.114198  0.038066  0.039108      8.000000
  0.076132  0.076132  0.039108      8.000000
  0.114198  0.076132  0.039108      8.000000
  0.114198  0.114198  0.039108      2.000000
  0.000000  0.000000  0.078217      2.000000
  0.038066  0.000000  0.078217      8.000000
  0.076132  0.000000  0.078217      8.000000
  0.114198  0.000000  0.078217      4.000000
  0.038066  0.038066  0.078217      8.000000
  0.076132  0.038066  0.078217     16.000000
  0.114198  0.038066  0.078217      8.000000
  0.076132  0.076132  0.078217      8.000000
  0.114198  0.076132  0.078217      8.000000
  0.114198  0.114198  0.078217      2.000000
  0.000000  0.000000  0.117325      2.000000
  0.038066  0.000000  0.117325      8.000000
  0.076132  0.000000  0.117325      8.000000
  0.114198  0.000000  0.117325      4.000000
  0.038066  0.038066  0.117325      8.000000
  0.076132  0.038066  0.117325     16.000000
  0.114198  0.038066  0.117325      8.000000
  0.076132  0.076132  0.117325      8.000000
  0.114198  0.076132  0.117325      8.000000
  0.114198  0.114198  0.117325      2.000000
  0.000000  0.000000  0.156433      2.000000
  0.038066  0.000000  0.156433      8.000000
  0.076132  0.000000  0.156433      8.000000
  0.114198  0.000000  0.156433      4.000000
  0.038066  0.038066  0.156433      8.000000
  0.076132  0.038066  0.156433     16.000000
  0.114198  0.038066  0.156433      8.000000
  0.076132  0.076132  0.156433      8.000000
  0.114198  0.076132  0.156433      8.000000
  0.114198  0.114198  0.156433      2.000000
 
 TETIRR: Found    489 inequivalent tetrahedra from     1944


--------------------------------------------------------------------------------------------------------




 Dimension of arrays:
   k-points           NKPTS =     50   k-points in BZ     NKDIM =     50   number of bands    NBANDS=     24
   number of dos      NEDOS =    301   number of ions     NIONS =      6
   non local maximal  LDIM  =      6   non local SUM 2l+1 LMDIM =     18
   total plane-waves  NPLWV =   9216
   max r-space proj   IRMAX =      1   max aug-charges    IRDMAX=   6420
   dimension x,y,z NGX =    24 NGY =   24 NGZ =   16
   dimension x,y,z NGXF=    48 NGYF=   48 NGZF=   32
   support grid    NGXF=    48 NGYF=   48 NGZF=   32
   ions per type =               4   2
 NGX,Y,Z   is equivalent  to a cutoff of   9.11,  9.11,  9.36 a.u.
 NGXF,Y,Z  is equivalent  to a cutoff of  18.23, 18.23, 18.72 a.u.


 I would recommend the setting:
   dimension x,y,z NGX =    24 NGY =   24 NGZ =   16
 SYSTEM =  (Mn O2)2  (P4_2/mnm) ~  (Pearson        
 POSCAR =  (Mn O2)2  (P4_2/mnm) ~  (Pearson #311740

 Startparameter for this run:
   NWRITE =      1    write-flag & timer
   PREC   = normal    normal or accurate (medium, high low for compatibility)
   ISTART =      0    job   : 0-new  1-cont  2-samecut
   ICHARG =      2    charge: 1-file 2-atom 10-const
   ISPIN  =      2    spin polarized calculation?
   LNONCOLLINEAR =      F non collinear calculations
   LSORBIT =      F    spin-orbit coupling
   INIWAV =      1    electr: 0-lowe 1-rand  2-diag
   LASPH  =      F    aspherical Exc in radial PAW
   METAGGA=      F    non-selfconsistent MetaGGA calc.

 Electronic Relaxation 1
   ENCUT  =  520.0 eV  38.22 Ry    6.18 a.u.   8.14  8.14  5.28*2*pi/ulx,y,z
   ENINI  =  520.0     initial cutoff
   ENAUG  =  605.4 eV  augmentation charge cutoff
   NELM   =     60;   NELMIN=  2; NELMDL= -5     # of ELM steps 
   EDIFF  = 0.1E-03   stopping-criterion for ELM
   LREAL  =      F    real-space projection
   NLSPLINE    = F    spline interpolate recip. space projectors
   LCOMPAT=      F    compatible to vasp.4.4
   GGA_COMPAT  = T    GGA compatible to vasp.4.4-vasp.4.6
   LMAXPAW     = -100 max onsite density
   LMAXMIX     =    2 max onsite mixed and CHGCAR
   VOSKOWN=      1    Vosko Wilk Nusair interpolation
   ROPT   =    0.00000   0.00000
 Ionic relaxation
   EDIFFG = 0.1E-02   stopping-criterion for IOM
   NSW    =      0    number of steps for IOM
   NBLOCK =      1;   KBLOCK =      1    inner block; outer block 
   IBRION =     -1    ionic relax: 0-MD 1-quasi-New 2-CG
   NFREE  =      0    steps in history (QN), initial steepest desc. (CG)
   ISIF   =      2    stress and relaxation
   IWAVPR =     10    prediction:  0-non 1-charg 2-wave 3-comb
   ISYM   =      2    0-nonsym 1-usesym 2-fastsym
   LCORR  =      T    Harris-Foulkes like correction to forces

   POTIM  = 0.5000    time-step for ionic-motion
   TEIN   =    0.0    initial temperature
   TEBEG  =    0.0;   TEEND  =   0.0 temperature during run
   SMASS  =  -3.00    Nose mass-parameter (am)
   estimated Nose-frequenzy (Omega)   =  0.10E-29 period in steps =****** mass=  -0.438E-27a.u.
   SCALEE = 1.0000    scale energy and forces
   NPACO  =    256;   APACO  = 16.0  distance and # of slots for P.C.
   PSTRESS=    0.0 pullay stress

  Mass of Ions in am
   POMASS =  16.00 54.94
  Ionic Valenz
   ZVAL   =   6.00  7.00
  Atomic Wigner-Seitz radii
   RWIGS  =  -1.00 -1.00
  virtual crystal weights 
   VCA    =   1.00  1.00
   NELECT =      38.0000    total number of electrons
   NUPDOWN=      -1.0000    fix difference up-down

 DOS related values:
   EMIN   =  10.00;   EMAX   =-10.00  energy-range for DOS
   EFERMI =   0.00
   ISMEAR =    -5;   SIGMA  =   0.20  broadening in eV -4-tet -1-fermi 0-gaus

 Electronic relaxation 2 (details)
   IALGO  =     38    algorithm
   LDIAG  =      T    sub-space diagonalisation (order eigenvalues)
   LSUBROT=      T    optimize rotation matrix (better conditioning)
   TURBO    =      0    0=normal 1=particle mesh
   IRESTART =      0    0=no restart 2=restart with 2 vectors
   NREBOOT  =      0    no. of reboots
   NMIN     =      0    reboot dimension
   EREF     =   0.00    reference energy to select bands
   IMIX   =      4    mixing-type and parameters
     AMIX     =   0.40;   BMIX     =  1.00
     AMIX_MAG =   1.60;   BMIX_MAG =  1.00
     AMIN     =   0.10
     WC   =   100.;   INIMIX=   1;  MIXPRE=   1;  MAXMIX= -45

 Intra band minimization:
   WEIMIN = 0.0000     energy-eigenvalue tresh-hold
   EBREAK =  0.10E-05  absolut break condition
   DEPER  =   0.30     relativ break condition  

   TIME   =   0.40     timestep for ELM

  volume/ion in A,a.u.               =       9.08        61.26
  Fermi-wavevector in a.u.,A,eV,Ry     =   1.451998  2.743878 28.685140  2.108298
  Thomas-Fermi vector in A             =   2.569431
 
 Write flags
   LWAVE  =      F    write WAVECAR
   LCHARG =      F    write CHGCAR
   LVTOT  =      F    write LOCPOT, total local potential
   LVHAR  =      F    write LOCPOT, Hartree potential only
   LELF   =      F    write electronic localiz. function (ELF)
   LORBIT =      0    0 simple, 1 ext, 2 COOP (PROOUT)


 Dipole corrections
   LMONO  =      F    monopole corrections only (constant potential shift)
   LDIPOL =      F    correct potential (dipole corrections)
   IDIPOL =      0    1-x, 2-y, 3-z, 4-all directions 
   EPSILON=  1.0000000 bulk dielectric constant

 Exchange correlation treatment:
   GGA     =    PS    GGA type
   LEXCH   =    14    internal setting for exchange type
   VOSKOWN=      1    Vosko Wilk Nusair interpolation
   LHFCALC =     F    Hartree Fock is set to
   LHFONE  =     F    Hartree Fock one center treatment
   AEXX    =    0.0000 exact exchange contribution

 Linear response parameters
   LEPSILON=     F    determine dielectric tensor
   LRPA    =     F    only Hartree local field effects (RPA)
   LNABLA  =     F    use nabla operator in PAW spheres
   LVEL    =     F    velocity operator in full k-point grid
   LINTERFAST=   F  fast interpolation
   KINTER  =     0    interpolate to denser k-point grid
   CSHIFT  =0.1000    complex shift for real part using Kramers Kronig
   OMEGAMAX=  -1.0    maximum frequency
   DEG_THRESHOLD= 0.2000000E-02 threshold for treating states as degnerate
   RTIME   =    0.100 relaxation time in fs

 Orbital magnetization related:
   ORBITALMAG=     F  switch on orbital magnetization
   LCHIMAG   =     F  perturbation theory with respect to B field
   DQ        =  0.001000  dq finite difference perturbation B field



--------------------------------------------------------------------------------------------------------


 Static calculation
 charge density and potential will be updated during run
 spin polarized calculation
 Variant of blocked Davidson
 Davidson routine will perform the subspace rotation
 perform sub-space diagonalisation
    after iterative eigenvector-optimisation
 modified Broyden-mixing scheme, WC =      100.0
 initial mixing is a Kerker type mixing with AMIX =  0.4000 and BMIX =      1.0000
 Hartree-type preconditioning will be used
 using additional bands            5
 reciprocal scheme for non local part
 use partial core corrections
 calculate Harris-corrections to forces 
   (improved forces if not selfconsistent)
 use gradient corrections 
 use of overlap-Matrix (Vanderbilt PP)
 Fermi weights with tetrahedron method with Bloechl corrections


--------------------------------------------------------------------------------------------------------


  energy-cutoff  :      520.00
  volume of cell :       54.46
      direct lattice vectors                 reciprocal lattice vectors
     4.378352048  0.000000000  0.000000000     0.228396435  0.000000000  0.000000000
     0.000000000  4.378352048  0.000000000     0.000000000  0.228396435  0.000000000
     0.000000000  0.000000000  2.841113926     0.000000000  0.000000000  0.351974622

  length of vectors
     4.378352048  4.378352048  2.841113926     0.228396435  0.228396435  0.351974622


 
 k-points in units of 2pi/SCALE and weight: Automatic mesh                          
   0.00000000  0.00000000  0.00000000       0.003
   0.03806607  0.00000000  0.00000000       0.012
   0.07613215  0.00000000  0.00000000       0.012
   0.11419822  0.00000000  0.00000000       0.006
   0.03806607  0.03806607  0.00000000       0.012
   0.07613215  0.03806607  0.00000000       0.025
   0.11419822  0.03806607  0.00000000       0.012
   0.07613215  0.07613215  0.00000000       0.012
   0.11419822  0.07613215  0.00000000       0.012
   0.11419822  0.11419822  0.00000000       0.003
   0.00000000  0.00000000  0.03910829       0.006
   0.03806607  0.00000000  0.03910829       0.025
   0.07613215  0.00000000  0.03910829       0.025
   0.11419822  0.00000000  0.03910829       0.012
   0.03806607  0.03806607  0.03910829       0.025
   0.07613215  0.03806607  0.03910829       0.049
   0.11419822  0.03806607  0.03910829       0.025
   0.07613215  0.07613215  0.03910829       0.025
   0.11419822  0.07613215  0.03910829       0.025
   0.11419822  0.11419822  0.03910829       0.006
   0.00000000  0.00000000  0.07821658       0.006
   0.03806607  0.00000000  0.07821658       0.025
   0.07613215  0.00000000  0.07821658       0.025
   0.11419822  0.00000000  0.07821658       0.012
   0.03806607  0.03806607  0.07821658       0.025
   0.07613215  0.03806607  0.07821658       0.049
   0.11419822  0.03806607  0.07821658       0.025
   0.07613215  0.07613215  0.07821658       0.025
   0.11419822  0.07613215  0.07821658       0.025
   0.11419822  0.11419822  0.07821658       0.006
   0.00000000  0.00000000  0.11732487       0.006
   0.03806607  0.00000000  0.11732487       0.025
   0.07613215  0.00000000  0.11732487       0.025
   0.11419822  0.00000000  0.11732487       0.012
   0.03806607  0.03806607  0.11732487       0.025
   0.07613215  0.03806607  0.11732487       0.049
   0.11419822  0.03806607  0.11732487       0.025
   0.07613215  0.07613215  0.11732487       0.025
   0.11419822  0.07613215  0.11732487       0.025
   0.11419822  0.11419822  0.11732487       0.006
   0.00000000  0.00000000  0.15643317       0.006
   0.03806607  0.00000000  0.15643317       0.025
   0.07613215  0.00000000  0.15643317       0.025
   0.11419822  0.00000000  0.15643317       0.012
   0.03806607  0.03806607  0.15643317       0.025
   0.07613215  0.03806607  0.15643317       0.049
   0.11419822  0.03806607  0.15643317       0.025
   0.07613215  0.07613215  0.15643317       0.025
   0.11419822  0.07613215  0.15643317       0.025
   0.11419822  0.11419822  0.15643317       0.006
 
 k-points in reciprocal lattice and weights: Automatic mesh                          
   0.00000000  0.00000000  0.00000000       0.003
   0.16666667  0.00000000  0.00000000       0.012
   0.33333333  0.00000000  0.00000000       0.012
   0.50000000  0.00000000  0.00000000       0.006
   0.16666667  0.16666667  0.00000000       0.012
   0.33333333  0.16666667  0.00000000       0.025
   0.50000000  0.16666667  0.00000000       0.012
   0.33333333  0.33333333  0.00000000       0.012
   0.50000000  0.33333333  0.00000000       0.012
   0.50000000  0.50000000  0.00000000       0.003
   0.00000000  0.00000000  0.11111111       0.006
   0.16666667  0.00000000  0.11111111       0.025
   0.33333333  0.00000000  0.11111111       0.025
   0.50000000  0.00000000  0.11111111       0.012
   0.16666667  0.16666667  0.11111111       0.025
   0.33333333  0.16666667  0.11111111       0.049
   0.50000000  0.16666667  0.11111111       0.025
   0.33333333  0.33333333  0.11111111       0.025
   0.50000000  0.33333333  0.11111111       0.025
   0.50000000  0.50000000  0.11111111       0.006
   0.00000000  0.00000000  0.22222222       0.006
   0.16666667  0.00000000  0.22222222       0.025
   0.33333333  0.00000000  0.22222222       0.025
   0.50000000  0.00000000  0.22222222       0.012
   0.16666667  0.16666667  0.22222222       0.025
   0.33333333  0.16666667  0.22222222       0.049
   0.50000000  0.16666667  0.22222222       0.025
   0.33333333  0.33333333  0.22222222       0.025
   0.50000000  0.33333333  0.22222222       0.025
   0.50000000  0.50000000  0.22222222       0.006
   0.00000000  0.00000000  0.33333333       0.006
   0.16666667  0.00000000  0.33333333       0.025
   0.33333333  0.00000000  0.33333333       0.025
   0.50000000  0.00000000  0.33333333       0.012
   0.16666667  0.16666667  0.33333333       0.025
   0.33333333  0.16666667  0.33333333       0.049
   0.50000000  0.16666667  0.33333333       0.025
   0.33333333  0.33333333  0.33333333       0.025
   0.50000000  0.33333333  0.33333333       0.025
   0.50000000  0.50000000  0.33333333       0.006
   0.00000000  0.00000000  0.44444444       0.006
   0.16666667  0.00000000  0.44444444       0.025
   0.33333333  0.00000000  0.44444444       0.025
   0.50000000  0.00000000  0.44444444       0.012
   0.16666667  0.16666667  0.44444444       0.025
   0.33333333  0.16666667  0.44444444       0.049
   0.50000000  0.16666667  0.44444444       0.025
   0.33333333  0.33333333  0.44444444       0.025
   0.50000000  0.33333333  0.44444444       0.025
   0.50000000  0.50000000  0.44444444       0.006
 
 position of ions in fractional coordinates (direct lattice) 
   0.30337010  0.30337010  0.00000000
   0.80337010  0.19662990  0.50000000
   0.19662990  0.80337010  0.50000000
   0.69662990  0.69662990  0.00000000
   0.00000000  0.00000000  0.00000000
   0.50000000  0.50000000  0.50000000
 
 position of ions in cartesian coordinates  (Angst):
   1.32826108  1.32826108  0.00000000
   3.51743710  0.86091495  1.42055696
   0.86091495  3.51743710  1.42055696
   3.05009097  3.05009097  0.00000000
   0.00000000  0.00000000  0.00000000
   2.18917602  2.18917602  1.42055696
 


--------------------------------------------------------------------------------------------------------


 k-point  1 :   0.0000 0.0000 0.0000  plane waves:    1447
 k-point  2 :   0.1667 0.0000 0.0000  plane waves:    1472
 k-point  3 :   0.3333 0.0000 0.0000  plane waves:    1472
 k-point  4 :   0.5000 0.0000 0.0000  plane waves:    1464
 k-point  5 :   0.1667 0.1667 0.0000  plane waves:    1481
 k-point  6 :   0.3333 0.1667 0.0000  plane waves:    1460
 k-point  7 :   0.5000 0.1667 0.0000  plane waves:    1446
 k-point  8 :   0.3333 0.3333 0.0000  plane waves:    1464
 k-point  9 :   0.5000 0.3333 0.0000  plane waves:    1482
 k-point 10 :   0.5000 0.5000 0.0000  plane waves:    1504
 k-point 11 :   0.0000 0.0000 0.1111  plane waves:    1467
 k-point 12 :   0.1667 0.0000 0.1111  plane waves:    1467
 k-point 13 :   0.3333 0.0000 0.1111  plane waves:    1468
 k-point 14 :   0.5000 0.0000 0.1111  plane waves:    1466
 k-point 15 :   0.1667 0.1667 0.1111  plane waves:    1470
 k-point 16 :   0.3333 0.1667 0.1111  plane waves:    1466
 k-point 17 :   0.5000 0.1667 0.1111  plane waves:    1464
 k-point 18 :   0.3333 0.3333 0.1111  plane waves:    1477
 k-point 19 :   0.5000 0.3333 0.1111  plane waves:    1468
 k-point 20 :   0.5000 0.5000 0.1111  plane waves:    1476
 k-point 21 :   0.0000 0.0000 0.2222  plane waves:    1459
 k-point 22 :   0.1667 0.0000 0.2222  plane waves:    1460
 k-point 23 :   0.3333 0.0000 0.2222  plane waves:    1466
 k-point 24 :   0.5000 0.0000 0.2222  plane waves:    1454
 k-point 25 :   0.1667 0.1667 0.2222  plane waves:    1468
 k-point 26 :   0.3333 0.1667 0.2222  plane waves:    1470
 k-point 27 :   0.5000 0.1667 0.2222  plane waves:    1468
 k-point 28 :   0.3333 0.3333 0.2222  plane waves:    1465
 k-point 29 :   0.5000 0.3333 0.2222  plane waves:    1470
 k-point 30 :   0.5000 0.5000 0.2222  plane waves:    1464
 k-point 31 :   0.0000 0.0000 0.3333  plane waves:    1474
 k-point 32 :   0.1667 0.0000 0.3333  plane waves:    1459
 k-point 33 :   0.3333 0.0000 0.3333  plane waves:    1457
 k-point 34 :   0.5000 0.0000 0.3333  plane waves:    1462
 k-point 35 :   0.1667 0.1667 0.3333  plane waves:    1457
 k-point 36 :   0.3333 0.1667 0.3333  plane waves:    1460
 k-point 37 :   0.5000 0.1667 0.3333  plane waves:    1468
 k-point 38 :   0.3333 0.3333 0.3333  plane waves:    1469
 k-point 39 :   0.5000 0.3333 0.3333  plane waves:    1474
 k-point 40 :   0.5000 0.5000 0.3333  plane waves:    1468
 k-point 41 :   0.0000 0.0000 0.4444  plane waves:    1478
 k-point 42 :   0.1667 0.0000 0.4444  plane waves:    1473
 k-point 43 :   0.3333 0.0000 0.4444  plane waves:    1473
 k-point 44 :   0.5000 0.0000 0.4444  plane waves:    1464
 k-point 45 :   0.1667 0.1667 0.4444  plane waves:    1454
 k-point 46 :   0.3333 0.1667 0.4444  plane waves:    1460
 k-point 47 :   0.5000 0.1667 0.4444  plane waves:    1464
 k-point 48 :   0.3333 0.3333 0.4444  plane waves:    1469
 k-point 49 :   0.5000 0.3333 0.4444  plane waves:    1472
 k-point 50 :   0.5000 0.5000 0.4444  plane waves:    1472

 maximum and minimum number of plane-waves per node :       384      346

 maximum number of plane-waves:      1504
 maximum index in each direction: 
   IXMAX=    8   IYMAX=    8   IZMAX=    5
   IXMIN=   -8   IYMIN=   -8   IZMIN=   -5

 WARNING: aliasing errors must be expected set NGX to  34 to avoid them
 WARNING: aliasing errors must be expected set NGY to  34 to avoid them
 WARNING: aliasing errors must be expected set NGZ to  22 to avoid them
 aliasing errors are usually negligible using standard VASP settings
 and one can safely disregard these warnings

 parallel 3D FFT for wavefunctions:
    minimum data exchange during FFTs selected (reduces bandwidth)
 parallel 3D FFT for charge:
    minimum data exchange during FFTs selected (reduces bandwidth)


 total amount of memory used by VASP on root node    38245. kBytes
========================================================================

   base      :      30000. kBytes
   nonl-proj :       5566. kBytes
   fftplans  :        175. kBytes
   grid      :        446. kBytes
   one-center:         62. kBytes
   wavefun   :       1996. kBytes
 
 Broyden mixing: mesh for mixing (old mesh)
   NGX = 17   NGY = 17   NGZ = 11
  (NGX  = 48   NGY  = 48   NGZ  = 32)
  gives a total of   3179 points

 initial charge density was supplied:
 charge density of overlapping atoms calculated
 number of electron      38.0000000 magnetization       0.0000000
 keeping initial charge density in first step


--------------------------------------------------------------------------------------------------------


 Maximum index for augmentation-charges          409 (set IRDMAX)


--------------------------------------------------------------------------------------------------------


 First call to EWALD:  gamma=   0.468
 Maximum number of real-space cells 2x 2x 4
 Maximum number of reciprocal cells 3x 3x 2

 FEWALD executed in parallel
    FEWALD:  cpu time    0.00: real time    0.00


----------------------------------------- Iteration    1(   1)  ---------------------------------------


    POTLOK:  cpu time    0.01: real time    0.01
    SETDIJ:  cpu time    0.00: real time    0.00
     EDDAV:  cpu time    0.68: real time    0.68
 BZINTS: Fermi energy: 23.017815; 38.000000 electrons
         Band energy: 392.180973;  BLOECHL correction: -0.226381
       DOS:  cpu time    0.03: real time    0.03
    --------------------------------------------
      LOOP:  cpu time    0.72: real time    0.92

 eigenvalue-minimisations  :  4840
 total energy-change (2. order) : 0.4541546E+03  (-0.1861282E+04)
 number of electron      38.0000000 magnetization       0.0000000
 augmentation part       38.0000000 magnetization       0.0000000

 Free energy of the ion-electron system (eV)
  ---------------------------------------------------
  alpha Z        PSCENC =       174.68624819
  Ewald energy   TEWEN  =     -2242.87289468
  -1/2 Hartree   DENC   =      -541.84650198
  -exchange  EXHF       =         0.00000000
  -V(xc)+E(xc)   XCENC  =        93.58223382
  PAW double counting   =      2192.87916522    -2169.73980493
  entropy T*S    EENTRO =         0.00000000
  eigenvalues    EBANDS =       392.18097295
  atomic energy  EATOM  =      2555.28521479
  ---------------------------------------------------
  free energy    TOTEN  =       454.15463337 eV

  energy without entropy =      454.15463337  energy(sigma->0) =      454.15463337


--------------------------------------------------------------------------------------------------------




----------------------------------------- Iteration    1(   2)  ---------------------------------------


     EDDAV:  cpu time    0.67: real time    0.67
 BZINTS: Fermi energy:  9.811966; 38.000000 electrons
         Band energy: -34.050343;  BLOECHL correction: -0.102550
       DOS:  cpu time    0.03: real time    0.03
    --------------------------------------------
      LOOP:  cpu time    0.71: real time    0.76

 eigenvalue-minimisations  :  4856
 total energy-change (2. order) :-0.4262313E+03  (-0.4151890E+03)
 number of electron      38.0000000 magnetization       0.0000000
 augmentation part       38.0000000 magnetization       0.0000000

 Free energy of the ion-electron system (eV)
  ---------------------------------------------------
  alpha Z        PSCENC =       174.68624819
  Ewald energy   TEWEN  =     -2242.87289468
  -1/2 Hartree   DENC   =      -541.84650198
  -exchange  EXHF       =         0.00000000
  -V(xc)+E(xc)   XCENC  =        93.58223382
  PAW double counting   =      2192.87916522    -2169.73980493
  entropy T*S    EENTRO =         0.00000000
  eigenvalues    EBANDS =       -34.05034334
  atomic energy  EATOM  =      2555.28521479
  ---------------------------------------------------
  free energy    TOTEN  =        27.92331708 eV

  energy without entropy =       27.92331708  energy(sigma->0) =       27.92331708


--------------------------------------------------------------------------------------------------------




----------------------------------------- Iteration    1(   3)  ---------------------------------------


     EDDAV:  cpu time    1.02: real time    1.02
 BZINTS: Fermi energy:  7.948342; 38.000000 electrons
         Band energy:-121.875697;  BLOECHL correction: -0.109439
       DOS:  cpu time    0.03: real time    0.03
    --------------------------------------------
      LOOP:  cpu time    1.05: real time    1.23

 eigenvalue-minimisations  :  8000
 total energy-change (2. order) :-0.8782535E+02  (-0.8503322E+02)
 number of electron      38.0000000 magnetization       0.0000000
 augmentation part       38.0000000 magnetization       0.0000000

 Free energy of the ion-electron system (eV)
  ---------------------------------------------------
  alpha Z        PSCENC =       174.68624819
  Ewald energy   TEWEN  =     -2242.87289468
  -1/2 Hartree   DENC   =      -541.84650198
  -exchange  EXHF       =         0.00000000
  -V(xc)+E(xc)   XCENC  =        93.58223382
  PAW double counting   =      2192.87916522    -2169.73980493
  entropy T*S    EENTRO =         0.00000000
  eigenvalues    EBANDS =      -121.87569716
  atomic energy  EATOM  =      2555.28521479
  ---------------------------------------------------
  free energy    TOTEN  =       -59.90203673 eV

  energy without entropy =      -59.90203673  energy(sigma->0) =      -59.90203673


--------------------------------------------------------------------------------------------------------




----------------------------------------- Iteration    1(   4)  ---------------------------------------


     EDDAV:  cpu time    0.87: real time    0.87
 BZINTS: Fermi energy:  7.072532; 38.000000 electrons
         Band energy:-127.877175;  BLOECHL correction:  0.000000
       DOS:  cpu time    0.00: real time    0.01
    --------------------------------------------
      LOOP:  cpu time    0.87: real time    0.94

 eigenvalue-minimisations  :  6768
 total energy-change (2. order) :-0.6001478E+01  (-0.5854865E+01)
 number of electron      38.0000000 magnetization       0.0000000
 augmentation part       38.0000000 magnetization       0.0000000

 Free energy of the ion-electron system (eV)
  ---------------------------------------------------
  alpha Z        PSCENC =       174.68624819
  Ewald energy   TEWEN  =     -2242.87289468
  -1/2 Hartree   DENC   =      -541.84650198
  -exchange  EXHF       =         0.00000000
  -V(xc)+E(xc)   XCENC  =        93.58223382
  PAW double counting   =      2192.87916522    -2169.73980493
  entropy T*S    EENTRO =         0.00000000
  eigenvalues    EBANDS =      -127.87717499
  atomic energy  EATOM  =      2555.28521479
  ---------------------------------------------------
  free energy    TOTEN  =       -65.90351456 eV

  energy without entropy =      -65.90351456  energy(sigma->0) =      -65.90351456


--------------------------------------------------------------------------------------------------------




----------------------------------------- Iteration    1(   5)  ---------------------------------------


     EDDAV:  cpu time    0.88: real time    0.88
 BZINTS: Fermi energy:  7.067076; 38.000000 electrons
         Band energy:-128.047031;  BLOECHL correction:  0.000000
       DOS:  cpu time    0.00: real time    0.01
    CHARGE:  cpu time    0.02: real time    0.02
    MIXING:  cpu time    0.00: real time    0.00
    --------------------------------------------
      LOOP:  cpu time    0.91: real time    0.97

 eigenvalue-minimisations  :  6920
 total energy-change (2. order) :-0.1698563E+00  (-0.1698278E+00)
 number of electron      38.0000160 magnetization       0.0000000
 augmentation part        7.5355314 magnetization       0.0000000

 Broyden mixing:
  rms(total) = 0.41211E+01    rms(broyden)= 0.41209E+01
  rms(prec ) = 0.68288E+01
  weight for this iteration     100.00

 Free energy of the ion-electron system (eV)
  ---------------------------------------------------
  alpha Z        PSCENC =       174.68624819
  Ewald energy   TEWEN  =     -2242.87289468
  -1/2 Hartree   DENC   =      -541.84650198
  -exchange  EXHF       =         0.00000000
  -V(xc)+E(xc)   XCENC  =        93.58223382
  PAW double counting   =      2192.87916522    -2169.73980493
  entropy T*S    EENTRO =         0.00000000
  eigenvalues    EBANDS =      -128.04703126
  atomic energy  EATOM  =      2555.28521479
  ---------------------------------------------------
  free energy    TOTEN  =       -66.07337084 eV

  energy without entropy =      -66.07337084  energy(sigma->0) =      -66.07337084


--------------------------------------------------------------------------------------------------------




----------------------------------------- Iteration    1(   6)  ---------------------------------------


    POTLOK:  cpu time    0.00: real time    0.01
    SETDIJ:  cpu time    0.01: real time    0.00
     EDDAV:  cpu time    0.90: real time    0.90
 BZINTS: Fermi energy:  3.606830; 38.000000 electrons
         Band energy:-110.940924;  BLOECHL correction: -0.052898
       DOS:  cpu time    0.03: real time    0.03
    CHARGE:  cpu time    0.02: real time    0.02
    MIXING:  cpu time    0.00: real time    0.00
    --------------------------------------------
      LOOP:  cpu time    0.97: real time    1.03

 eigenvalue-minimisations  :  7120
 total energy-change (2. order) : 0.4175727E+01  (-0.1577358E+02)
 number of electron      38.0000124 magnetization       0.0000000
 augmentation part       11.8034978 magnetization       0.0000000

 Broyden mixing:
  rms(total) = 0.55901E+01    rms(broyden)= 0.55898E+01
  rms(prec ) = 0.10095E+02
  weight for this iteration     100.00

 eigenvalues of (default mixing * dielectric matrix)
  average eigenvalue GAMMA=   0.2867
  0.2867

 Free energy of the ion-electron system (eV)
  ---------------------------------------------------
  alpha Z        PSCENC =       174.68624819
  Ewald energy   TEWEN  =     -2242.87289468
  -1/2 Hartree   DENC   =      -562.98272030
  -exchange  EXHF       =         0.00000000
  -V(xc)+E(xc)   XCENC  =        97.04494724
  PAW double counting   =      2633.01915866    -2605.13667311
  entropy T*S    EENTRO =         0.00000000
  eigenvalues    EBANDS =      -110.94092431
  atomic energy  EATOM  =      2555.28521479
  ---------------------------------------------------
  free energy    TOTEN  =       -61.89764353 eV

  energy without entropy =      -61.89764353  energy(sigma->0) =      -61.89764353


--------------------------------------------------------------------------------------------------------




----------------------------------------- Iteration    1(   7)  ---------------------------------------


    POTLOK:  cpu time    0.01: real time    0.01
    SETDIJ:  cpu time    0.00: real time    0.00
     EDDAV:  cpu time    0.99: real time    0.99
 BZINTS: Fermi energy:  5.676401; 38.000000 electrons
         Band energy: -96.621134;  BLOECHL correction: -0.002123
       DOS:  cpu time    0.03: real time    0.03
    CHARGE:  cpu time    0.02: real time    0.02
    MIXING:  cpu time    0.00: real time    0.00
    --------------------------------------------
      LOOP:  cpu time    1.04: real time    1.23

 eigenvalue-minimisations  :  7848
 total energy-change (2. order) : 0.9607465E+01  (-0.1757133E+02)
 number of electron      38.0000146 magnetization      -0.0000000
 augmentation part        7.8462734 magnetization      -0.0000000

 Broyden mixing:
  rms(total) = 0.18391E+01    rms(broyden)= 0.18387E+01
  rms(prec ) = 0.30661E+01
  weight for this iteration     100.00

 eigenvalues of (default mixing * dielectric matrix)
  average eigenvalue GAMMA=   0.7253
  1.1580  0.2927

 Free energy of the ion-electron system (eV)
  ---------------------------------------------------
  alpha Z        PSCENC =       174.68624819
  Ewald energy   TEWEN  =     -2242.87289468
  -1/2 Hartree   DENC   =      -557.63564105
  -exchange  EXHF       =         0.00000000
  -V(xc)+E(xc)   XCENC  =        93.40595740
  PAW double counting   =      2782.45969193    -2760.99762124
  entropy T*S    EENTRO =         0.00000000
  eigenvalues    EBANDS =       -96.62113350
  atomic energy  EATOM  =      2555.28521479
  ---------------------------------------------------
  free energy    TOTEN  =       -52.29017818 eV

  energy without entropy =      -52.29017818  energy(sigma->0) =      -52.29017818


--------------------------------------------------------------------------------------------------------




----------------------------------------- Iteration    1(   8)  ---------------------------------------


    POTLOK:  cpu time    0.00: real time    0.01
    SETDIJ:  cpu time    0.00: real time    0.00
     EDDAV:  cpu time    0.89: real time    0.89
 BZINTS: Fermi energy:  4.507756; 38.000000 electrons
         Band energy:-105.199449;  BLOECHL correction: -0.003518
       DOS:  cpu time    0.03: real time    0.03
    CHARGE:  cpu time    0.02: real time    0.02
    MIXING:  cpu time    0.00: real time    0.00
    --------------------------------------------
      LOOP:  cpu time    0.95: real time    1.01

 eigenvalue-minimisations  :  7104
 total energy-change (2. order) : 0.1598101E+01  (-0.9915808E+00)
 number of electron      38.0000146 magnetization      -0.0000000
 augmentation part        8.4312247 magnetization      -0.0000000

 Broyden mixing:
  rms(total) = 0.75103E+00    rms(broyden)= 0.75099E+00
  rms(prec ) = 0.13082E+01
  weight for this iteration     100.00

 eigenvalues of (default mixing * dielectric matrix)
  average eigenvalue GAMMA=   0.8672
  1.6578  0.3168  0.6269

 Free energy of the ion-electron system (eV)
  ---------------------------------------------------
  alpha Z        PSCENC =       174.68624819
  Ewald energy   TEWEN  =     -2242.87289468
  -1/2 Hartree   DENC   =      -548.25740231
  -exchange  EXHF       =         0.00000000
  -V(xc)+E(xc)   XCENC  =        94.54356199
  PAW double counting   =      3108.88130802    -3087.75866424
  entropy T*S    EENTRO =         0.00000000
  eigenvalues    EBANDS =      -105.19944882
  atomic energy  EATOM  =      2555.28521479
  ---------------------------------------------------
  free energy    TOTEN  =       -50.69207706 eV

  energy without entropy =      -50.69207706  energy(sigma->0) =      -50.69207706


--------------------------------------------------------------------------------------------------------




----------------------------------------- Iteration    1(   9)  ---------------------------------------


    POTLOK:  cpu time    0.01: real time    0.01
    SETDIJ:  cpu time    0.00: real time    0.01
     EDDAV:  cpu time    0.94: real time    0.94
 BZINTS: Fermi energy:  4.110345; 38.000000 electrons
         Band energy:-104.871849;  BLOECHL correction: -0.008548
       DOS:  cpu time    0.03: real time    0.03
    CHARGE:  cpu time    0.02: real time    0.02
    MIXING:  cpu time    0.00: real time    0.00
    --------------------------------------------
      LOOP:  cpu time    1.00: real time    1.09

 eigenvalue-minimisations  :  7504
 total energy-change (2. order) : 0.3229002E+00  (-0.1552867E+00)
 number of electron      38.0000142 magnetization      -0.0000000
 augmentation part        8.7337927 magnetization      -0.0000000

 Broyden mixing:
  rms(total) = 0.15810E+00    rms(broyden)= 0.15803E+00
  rms(prec ) = 0.19348E+00
  weight for this iteration     100.00

 eigenvalues of (default mixing * dielectric matrix)
  average eigenvalue GAMMA=   0.9507
  1.8298  1.0409  0.3197  0.6123

 Free energy of the ion-electron system (eV)
  ---------------------------------------------------
  alpha Z        PSCENC =       174.68624819
  Ewald energy   TEWEN  =     -2242.87289468
  -1/2 Hartree   DENC   =      -548.33334880
  -exchange  EXHF       =         0.00000000
  -V(xc)+E(xc)   XCENC  =        94.98614993
  PAW double counting   =      3274.54693354    -3253.79563094
  entropy T*S    EENTRO =         0.00000000
  eigenvalues    EBANDS =      -104.87184891
  atomic energy  EATOM  =      2555.28521479
  ---------------------------------------------------
  free energy    TOTEN  =       -50.36917690 eV

  energy without entropy =      -50.36917690  energy(sigma->0) =      -50.36917690


--------------------------------------------------------------------------------------------------------




----------------------------------------- Iteration    1(  10)  ---------------------------------------


    POTLOK:  cpu time    0.00: real time    0.01
    SETDIJ:  cpu time    0.00: real time    0.00
     EDDAV:  cpu time    0.83: real time    0.83
 BZINTS: Fermi energy:  4.146437; 38.000000 electrons
         Band energy:-104.624187;  BLOECHL correction: -0.008352
       DOS:  cpu time    0.03: real time    0.03
    CHARGE:  cpu time    0.02: real time    0.02
    MIXING:  cpu time    0.00: real time    0.00
    --------------------------------------------
      LOOP:  cpu time    0.89: real time    0.99

 eigenvalue-minimisations  :  6384
 total energy-change (2. order) :-0.3280150E-02  (-0.1107654E-01)
 number of electron      38.0000142 magnetization       0.0000000
 augmentation part        8.6977713 magnetization       0.0000000

 Broyden mixing:
  rms(total) = 0.80219E-01    rms(broyden)= 0.80211E-01
  rms(prec ) = 0.11085E+00
  weight for this iteration     100.00

 eigenvalues of (default mixing * dielectric matrix)
  average eigenvalue GAMMA=   0.9422
  1.8603  0.3197  0.6441  0.9435  0.9435

 Free energy of the ion-electron system (eV)
  ---------------------------------------------------
  alpha Z        PSCENC =       174.68624819
  Ewald energy   TEWEN  =     -2242.87289468
  -1/2 Hartree   DENC   =      -548.16525337
  -exchange  EXHF       =         0.00000000
  -V(xc)+E(xc)   XCENC  =        95.11620252
  PAW double counting   =      3299.14581084    -3278.94359807
  entropy T*S    EENTRO =         0.00000000
  eigenvalues    EBANDS =      -104.62418725
  atomic energy  EATOM  =      2555.28521479
  ---------------------------------------------------
  free energy    TOTEN  =       -50.37245705 eV

  energy without entropy =      -50.37245705  energy(sigma->0) =      -50.37245705


--------------------------------------------------------------------------------------------------------




----------------------------------------- Iteration    1(  11)  ---------------------------------------


    POTLOK:  cpu time    0.00: real time    0.01
    SETDIJ:  cpu time    0.00: real time    0.00
     EDDAV:  cpu time    0.95: real time    0.95
 BZINTS: Fermi energy:  4.131528; 38.000000 electrons
         Band energy:-105.246821;  BLOECHL correction: -0.008513
       DOS:  cpu time    0.03: real time    0.03
    CHARGE:  cpu time    0.02: real time    0.02
    MIXING:  cpu time    0.00: real time    0.00
    --------------------------------------------
      LOOP:  cpu time    1.01: real time    1.09

 eigenvalue-minimisations  :  7584
 total energy-change (2. order) : 0.3338920E-02  (-0.7650177E-03)
 number of electron      38.0000142 magnetization      -0.0000000
 augmentation part        8.7023327 magnetization      -0.0000000

 Broyden mixing:
  rms(total) = 0.40185E-01    rms(broyden)= 0.40184E-01
  rms(prec ) = 0.56172E-01
  weight for this iteration     100.00

 eigenvalues of (default mixing * dielectric matrix)
  average eigenvalue GAMMA=   1.0389
  2.0523  1.6284  0.3198  0.8624  0.6393  0.7314

 Free energy of the ion-electron system (eV)
  ---------------------------------------------------
  alpha Z        PSCENC =       174.68624819
  Ewald energy   TEWEN  =     -2242.87289468
  -1/2 Hartree   DENC   =      -547.25438351
  -exchange  EXHF       =         0.00000000
  -V(xc)+E(xc)   XCENC  =        95.04363011
  PAW double counting   =      3319.91294079    -3299.92305252
  entropy T*S    EENTRO =         0.00000000
  eigenvalues    EBANDS =      -105.24682128
  atomic energy  EATOM  =      2555.28521479
  ---------------------------------------------------
  free energy    TOTEN  =       -50.36911812 eV

  energy without entropy =      -50.36911812  energy(sigma->0) =      -50.36911812


--------------------------------------------------------------------------------------------------------




----------------------------------------- Iteration    1(  12)  ---------------------------------------


    POTLOK:  cpu time    0.00: real time    0.01
    SETDIJ:  cpu time    0.00: real time    0.00
     EDDAV:  cpu time    0.96: real time    0.96
 BZINTS: Fermi energy:  4.123147; 38.000000 electrons
         Band energy:-105.420081;  BLOECHL correction: -0.008827
       DOS:  cpu time    0.03: real time    0.03
    CHARGE:  cpu time    0.02: real time    0.02
    MIXING:  cpu time    0.00: real time    0.00
    --------------------------------------------
      LOOP:  cpu time    1.02: real time    1.10

 eigenvalue-minimisations  :  7712
 total energy-change (2. order) : 0.6060374E-03  (-0.1738273E-03)
 number of electron      38.0000142 magnetization      -0.0000000
 augmentation part        8.7100890 magnetization      -0.0000000

 Broyden mixing:
  rms(total) = 0.16705E-01    rms(broyden)= 0.16704E-01
  rms(prec ) = 0.18402E-01
  weight for this iteration     100.00

 eigenvalues of (default mixing * dielectric matrix)
  average eigenvalue GAMMA=   1.0955
  2.1676  1.9642  0.3198  1.1060  0.8078  0.6176  0.6857

 Free energy of the ion-electron system (eV)
  ---------------------------------------------------
  alpha Z        PSCENC =       174.68624819
  Ewald energy   TEWEN  =     -2242.87289468
  -1/2 Hartree   DENC   =      -546.91908583
  -exchange  EXHF       =         0.00000000
  -V(xc)+E(xc)   XCENC  =        95.08270014
  PAW double counting   =      3332.19170839    -3312.40232216
  entropy T*S    EENTRO =         0.00000000
  eigenvalues    EBANDS =      -105.42008091
  atomic energy  EATOM  =      2555.28521479
  ---------------------------------------------------
  free energy    TOTEN  =       -50.36851209 eV

  energy without entropy =      -50.36851209  energy(sigma->0) =      -50.36851209


--------------------------------------------------------------------------------------------------------




----------------------------------------- Iteration    1(  13)  ---------------------------------------


    POTLOK:  cpu time    0.00: real time    0.01
    SETDIJ:  cpu time    0.00: real time    0.00
     EDDAV:  cpu time    0.49: real time    0.49
 BZINTS: Fermi energy:  4.127448; 38.000000 electrons
         Band energy:-105.340153;  BLOECHL correction: -0.008775
       DOS:  cpu time    0.03: real time    0.03
    CHARGE:  cpu time    0.02: real time    0.02
    MIXING:  cpu time    0.00: real time    0.00
    --------------------------------------------
      LOOP:  cpu time    0.55: real time    0.63

 eigenvalue-minimisations  :  2624
 total energy-change (2. order) : 0.1230405E-03  (-0.1089327E-04)
 number of electron      38.0000142 magnetization      -0.0000000
 augmentation part        8.7079898 magnetization      -0.0000000

 Broyden mixing:
  rms(total) = 0.75027E-02    rms(broyden)= 0.75026E-02
  rms(prec ) = 0.12377E-01
  weight for this iteration     100.00

 eigenvalues of (default mixing * dielectric matrix)
  average eigenvalue GAMMA=   1.0730
  2.1616  2.0815  0.3198  1.0212  1.0212  0.6838  0.6838  0.6115

 Free energy of the ion-electron system (eV)
  ---------------------------------------------------
  alpha Z        PSCENC =       174.68624819
  Ewald energy   TEWEN  =     -2242.87289468
  -1/2 Hartree   DENC   =      -546.97717120
  -exchange  EXHF       =         0.00000000
  -V(xc)+E(xc)   XCENC  =        95.06028566
  PAW double counting   =      3332.18921942    -3312.39913831
  entropy T*S    EENTRO =         0.00000000
  eigenvalues    EBANDS =      -105.34015291
  atomic energy  EATOM  =      2555.28521479
  ---------------------------------------------------
  free energy    TOTEN  =       -50.36838905 eV

  energy without entropy =      -50.36838905  energy(sigma->0) =      -50.36838905


--------------------------------------------------------------------------------------------------------




----------------------------------------- Iteration    1(  14)  ---------------------------------------


    POTLOK:  cpu time    0.01: real time    0.01
    SETDIJ:  cpu time    0.00: real time    0.00
     EDDAV:  cpu time    0.47: real time    0.47
 BZINTS: Fermi energy:  4.125806; 38.000000 electrons
         Band energy:-105.307089;  BLOECHL correction: -0.008828
       DOS:  cpu time    0.03: real time    0.03
    --------------------------------------------
      LOOP:  cpu time    0.52: real time    0.59

 eigenvalue-minimisations  :  2456
 total energy-change (2. order) :-0.1940777E-04  (-0.6687587E-05)
 number of electron      38.0000142 magnetization      -0.0000000
 augmentation part        8.7079898 magnetization      -0.0000000

 Free energy of the ion-electron system (eV)
  ---------------------------------------------------
  alpha Z        PSCENC =       174.68624819
  Ewald energy   TEWEN  =     -2242.87289468
  -1/2 Hartree   DENC   =      -547.01394615
  -exchange  EXHF       =         0.00000000
  -V(xc)+E(xc)   XCENC  =        95.06823224
  PAW double counting   =      3332.82914065    -3313.04331449
  entropy T*S    EENTRO =         0.00000000
  eigenvalues    EBANDS =      -105.30708900
  atomic energy  EATOM  =      2555.28521479
  ---------------------------------------------------
  free energy    TOTEN  =       -50.36840845 eV

  energy without entropy =      -50.36840845  energy(sigma->0) =      -50.36840845


--------------------------------------------------------------------------------------------------------




 average (electrostatic) potential at core
  the test charge radii are     0.7215  1.0210
  (the norm of the test charge is              1.0000)
       1 -71.2300       2 -71.2300       3 -71.2300       4 -71.2300       5 -46.5380
       6 -46.5380
 
 
 
 E-fermi :   4.1258     XC(G=0): -12.2371     alpha+bet :-11.7092


 spin component 1

 k-point   1 :       0.0000    0.0000    0.0000
  band No.  band energies     occupation 
      1     -15.9210      1.00000
      2     -13.9637      1.00000
      3     -13.6388      1.00000
      4     -13.5473      1.00000
      5      -3.8661      1.00000
      6      -3.0208      1.00000
      7      -2.4369      1.00000
      8      -1.7257      1.00000
      9      -1.2005      1.00000
     10      -0.0175      1.00000
     11       0.0564      1.00000
     12       0.6171      1.00000
     13       1.8881      1.00000
     14       1.9953      1.00000
     15       2.4857      1.00000
     16       2.6091      1.00000
     17       2.9702      1.00000
     18       3.0196      1.00000
     19       3.6766      1.00000
     20       3.7826      0.92425
     21       4.3565      0.00000
     22       5.2744      0.00000
     23       6.0629      0.00000
     24       7.2765      0.00000

 k-point   2 :       0.1667    0.0000    0.0000
  band No.  band energies     occupation 
      1     -15.8099      1.00000
      2     -14.1021      1.00000
      3     -13.6502      1.00000
      4     -13.5735      1.00000
      5      -3.6648      1.00000
      6      -2.9268      1.00000
      7      -2.2390      1.00000
      8      -1.7196      1.00000
      9      -1.1688      1.00000
     10      -0.2482      1.00000
     11      -0.0582      1.00000
     12       0.5758      1.00000
     13       1.7785      1.00000
     14       1.8187      1.00000
     15       2.1813      1.00000
     16       2.6231      1.00000
     17       2.6560      1.00000
     18       3.1266      1.00000
     19       3.6192      1.00000
     20       4.2719      0.03812
     21       4.5724      0.00000
     22       5.4750      0.00000
     23       6.0138      0.00000
     24       7.1571      0.00000

 k-point   3 :       0.3333    0.0000    0.0000
  band No.  band energies     occupation 
      1     -15.4937      1.00000
      2     -14.5043      1.00000
      3     -13.6569      1.00000
      4     -13.6041      1.00000
      5      -3.2605      1.00000
      6      -2.6993      1.00000
      7      -1.7084      1.00000
      8      -1.6104      1.00000
      9      -1.1008      1.00000
     10      -0.7167      1.00000
     11      -0.3254      1.00000
     12       0.5320      1.00000
     13       0.8157      1.00000
     14       1.3912      1.00000
     15       2.1719      1.00000
     16       2.5226      1.00000
     17       2.8673      1.00000
     18       2.9682      1.00000
     19       3.6521      1.00000
     20       4.7002      0.00000
     21       4.9921      0.00000
     22       5.8783      0.00000
     23       6.1066      0.00000
     24       6.8731      0.00000

 k-point   4 :       0.5000    0.0000    0.0000
  band No.  band energies     occupation 
      1     -15.0658      1.00000
      2     -14.9809      1.00000
      3     -13.6530      1.00000
      4     -13.6184      1.00000
      5      -3.0554      1.00000
      6      -2.5504      1.00000
      7      -1.7031      1.00000
      8      -1.0644      1.00000
      9      -1.0178      1.00000
     10      -0.7517      1.00000
     11      -0.4962      1.00000
     12      -0.1807      1.00000
     13       0.5399      1.00000
     14       1.1914      1.00000
     15       2.2712      1.00000
     16       2.6219      1.00000
     17       2.6735      1.00000
     18       2.9849      1.00000
     19       3.7134      1.00000
     20       4.8165      0.00000
     21       5.2211      0.00000
     22       5.8324      0.00000
     23       6.5537      0.00000
     24       6.6925      0.00000

 k-point   5 :       0.1667    0.1667    0.0000
  band No.  band energies     occupation 
      1     -15.7108      1.00000
      2     -14.1789      1.00000
      3     -13.6971      1.00000
      4     -13.6005      1.00000
      5      -3.6490      1.00000
      6      -2.6349      1.00000
      7      -2.0757      1.00000
      8      -1.7415      1.00000
      9      -1.0866      1.00000
     10      -0.6882      1.00000
     11       0.1758      1.00000
     12       0.4290      1.00000
     13       1.6759      1.00000
     14       1.8965      1.00000
     15       1.9254      1.00000
     16       1.9473      1.00000
     17       2.9961      1.00000
     18       3.2098      1.00000
     19       3.8023      1.00767
     20       4.3548      0.00323
     21       4.7092      0.00000
     22       5.4974      0.00000
     23       6.0088      0.00000
     24       7.2721      0.00000

 k-point   6 :       0.3333    0.1667    0.0000
  band No.  band energies     occupation 
      1     -15.4238      1.00000
      2     -14.5069      1.00000
      3     -13.7204      1.00000
      4     -13.6323      1.00000
      5      -3.4640      1.00000
      6      -2.4595      1.00000
      7      -1.7440      1.00000
      8      -1.5454      1.00000
      9      -1.0647      1.00000
     10      -0.8817      1.00000
     11       0.1019      1.00000
     12       0.4609      1.00000
     13       0.9233      1.00000
     14       1.4998      1.00000
     15       1.8661      1.00000
     16       2.1123      1.00000
     17       2.8640      1.00000
     18       3.0388      1.00000
     19       3.9695      1.01320
     20       4.5575      0.00000
     21       4.7766      0.00000
     22       5.9774      0.00000
     23       6.0903      0.00000
     24       7.1527      0.00000

 k-point   7 :       0.5000    0.1667    0.0000
  band No.  band energies     occupation 
      1     -15.0322      1.00000
      2     -14.9425      1.00000
      3     -13.7008      1.00000
      4     -13.6532      1.00000
      5      -3.1904      1.00000
      6      -2.7780      1.00000
      7      -1.7252      1.00000
      8      -1.1298      1.00000
      9      -0.9142      1.00000
     10      -0.7262      1.00000
     11      -0.0469      1.00000
     12       0.1851      1.00000
     13       0.7257      1.00000
     14       1.2780      1.00000
     15       2.0691      1.00000
     16       2.2084      1.00000
     17       2.5802      1.00000
     18       2.8240      1.00000
     19       3.9919      1.02700
     20       4.6313      0.00000
     21       4.9705      0.00000
     22       5.9447      0.00000
     23       6.4975      0.00000
     24       6.8770      0.00000

 k-point   8 :       0.3333    0.3333    0.0000
  band No.  band energies     occupation 
      1     -15.2189      1.00000
      2     -14.6160      1.00000
      3     -13.8088      1.00000
      4     -13.6860      1.00000
      5      -3.5443      1.00000
      6      -2.7433      1.00000
      7      -1.7729      1.00000
      8      -1.1521      1.00000
      9      -1.1443      1.00000
     10      -0.4553      1.00000
     11       0.5436      1.00000
     12       0.7154      1.00000
     13       1.0275      1.00000
     14       1.2346      1.00000
     15       1.5758      1.00000
     16       1.9065      1.00000
     17       2.5520      1.00000
     18       2.8545      1.00000
     19       4.2520      0.31799
     20       4.3520      0.00000
     21       4.4986      0.00000
     22       6.1032      0.00000
     23       6.2761      0.00000
     24       7.2638      0.00000

 k-point   9 :       0.5000    0.3333    0.0000
  band No.  band energies     occupation 
      1     -14.9601      1.00000
      2     -14.8564      1.00000
      3     -13.8045      1.00000
      4     -13.7307      1.00000
      5      -3.4356      1.00000
      6      -3.1020      1.00000
      7      -1.7680      1.00000
      8      -1.2382      1.00000
      9      -0.6058      1.00000
     10      -0.3458      1.00000
     11       0.3807      1.00000
     12       0.8291      1.00000
     13       1.1711      1.00000
     14       1.4668      1.00000
     15       1.7068      1.00000
     16       1.7857      1.00000
     17       2.3193      1.00000
     18       2.4096      1.00000
     19       4.1132      0.69257
     20       4.3129      0.00000
     21       4.5480      0.00000
     22       6.1466      0.00000
     23       6.3980      0.00000
     24       7.1494      0.00000

 k-point  10 :       0.5000    0.5000    0.0000
  band No.  band energies     occupation 
      1     -14.9203      1.00000
      2     -14.8065      1.00000
      3     -13.8628      1.00000
      4     -13.7736      1.00000
      5      -3.5465      1.00000
      6      -3.2302      1.00000
      7      -1.7886      1.00000
      8      -1.2847      1.00000
      9      -0.0907      1.00000
     10      -0.0829      1.00000
     11       0.0414      1.00000
     12       0.9281      1.00000
     13       1.5528      1.00000
     14       1.5881      1.00000
     15       1.8140      1.00000
     16       1.9705      1.00000
     17       2.0081      1.00000
     18       2.0210      1.00000
     19       3.7087      1.30775
     20       4.3510      0.00000
     21       4.4198      0.00000
     22       6.2312      0.00000
     23       6.3599      0.00000
     24       7.2582      0.00000

 k-point  11 :       0.0000    0.0000    0.1111
  band No.  band energies     occupation 
      1     -15.7954      1.00000
      2     -13.9255      1.00000
      3     -13.6612      1.00000
      4     -13.5663      1.00000
      5      -3.6947      1.00000
      6      -2.9125      1.00000
      7      -2.2869      1.00000
      8      -1.8229      1.00000
      9      -1.4227      1.00000
     10       0.1062      1.00000
     11       0.2932      1.00000
     12       0.3077      1.00000
     13       1.4600      1.00000
     14       1.6266      1.00000
     15       2.5147      1.00000
     16       2.5496      1.00000
     17       2.6439      1.00000
     18       3.2744      1.00000
     19       3.4997      1.00000
     20       3.9639      0.37957
     21       4.6939      0.00000
     22       5.5214      0.00000
     23       5.9905      0.00000
     24       7.0475      0.00000

 k-point  12 :       0.1667    0.0000    0.1111
  band No.  band energies     occupation 
      1     -15.6879      1.00000
      2     -14.0524      1.00000
      3     -13.6726      1.00000
      4     -13.5935      1.00000
      5      -3.5018      1.00000
      6      -2.8151      1.00000
      7      -2.1573      1.00000
      8      -1.7753      1.00000
      9      -1.3724      1.00000
     10      -0.0799      1.00000
     11       0.0503      1.00000
     12       0.3340      1.00000
     13       1.1399      1.00000
     14       1.7399      1.00000
     15       2.0329      1.00000
     16       2.4444      1.00000
     17       3.0051      1.00000
     18       3.1957      1.00000
     19       3.4490      1.00000
     20       4.3632      0.00160
     21       4.7895      0.00000
     22       5.7055      0.00000
     23       5.9392      0.00000
     24       6.9060      0.00000

 k-point  13 :       0.3333    0.0000    0.1111
  band No.  band energies     occupation 
      1     -15.3824      1.00000
      2     -14.4334      1.00000
      3     -13.6781      1.00000
      4     -13.6243      1.00000
      5      -3.1012      1.00000
      6      -2.5829      1.00000
      7      -1.9016      1.00000
      8      -1.5965      1.00000
      9      -1.1960      1.00000
     10      -0.3872      1.00000
     11      -0.2390      1.00000
     12       0.1021      1.00000
     13       0.5654      1.00000
     14       1.1369      1.00000
     15       2.1251      1.00000
     16       2.4155      1.00000
     17       3.0291      1.00000
     18       3.1378      1.00000
     19       3.5708      1.00000
     20       4.8385      0.00000
     21       5.0584      0.00000
     22       5.8128      0.00000
     23       6.1965      0.00000
     24       6.5740      0.00000

 k-point  14 :       0.5000    0.0000    0.1111
  band No.  band energies     occupation 
      1     -14.9697      1.00000
      2     -14.8902      1.00000
      3     -13.6736      1.00000
      4     -13.6387      1.00000
      5      -2.8891      1.00000
      6      -2.4413      1.00000
      7      -1.8166      1.00000
      8      -1.4688      1.00000
      9      -0.9104      1.00000
     10      -0.4049      1.00000
     11      -0.3587      1.00000
     12      -0.3119      1.00000
     13       0.4830      1.00000
     14       0.5040      1.00000
     15       2.2409      1.00000
     16       2.4889      1.00000
     17       3.0096      1.00000
     18       3.0402      1.00000
     19       3.6567      1.00000
     20       5.0828      0.00000
     21       5.1854      0.00000
     22       5.7457      0.00000
     23       6.3622      0.00000
     24       6.5132      0.00000

 k-point  15 :       0.1667    0.1667    0.1111
  band No.  band energies     occupation 
      1     -15.5920      1.00000
      2     -14.1198      1.00000
      3     -13.7167      1.00000
      4     -13.6237      1.00000
      5      -3.4956      1.00000
      6      -2.5198      1.00000
      7      -2.1343      1.00000
      8      -1.6264      1.00000
      9      -1.3845      1.00000
     10      -0.4002      1.00000
     11       0.0145      1.00000
     12       0.3921      1.00000
     13       0.8525      1.00000
     14       1.9404      1.00000
     15       1.9545      1.00000
     16       2.4273      1.00000
     17       2.7906      1.00000
     18       2.8804      1.00000
     19       3.6029      1.00544
     20       4.7535     -0.01922
     21       4.9419      0.00000
     22       5.6566      0.00000
     23       5.9329      0.00000
     24       7.0534      0.00000

 k-point  16 :       0.3333    0.1667    0.1111
  band No.  band energies     occupation 
      1     -15.3150      1.00000
      2     -14.4326      1.00000
      3     -13.7378      1.00000
      4     -13.6533      1.00000
      5      -3.3178      1.00000
      6      -2.3361      1.00000
      7      -2.0165      1.00000
      8      -1.4688      1.00000
      9      -1.2235      1.00000
     10      -0.4845      1.00000
     11      -0.0756      1.00000
     12       0.2109      1.00000
     13       0.7858      1.00000
     14       1.1712      1.00000
     15       2.0643      1.00000
     16       2.2051      1.00000
     17       2.7576      1.00000
     18       2.9290      1.00000
     19       3.8249      1.01910
     20       4.7566      0.00000
     21       5.0559      0.00000
     22       5.8963      0.00000
     23       6.1599      0.00000
     24       6.9061      0.00000

 k-point  17 :       0.5000    0.1667    0.1111
  band No.  band energies     occupation 
      1     -14.9372      1.00000
      2     -14.8524      1.00000
      3     -13.7193      1.00000
      4     -13.6708      1.00000
      5      -3.0375      1.00000
      6      -2.6699      1.00000
      7      -1.8945      1.00000
      8      -1.5480      1.00000
      9      -0.7660      1.00000
     10      -0.3200      1.00000
     11       0.0241      1.00000
     12       0.1288      1.00000
     13       0.5359      1.00000
     14       0.6479      1.00000
     15       2.0163      1.00000
     16       2.2244      1.00000
     17       2.7815      1.00000
     18       2.9076      1.00000
     19       3.9253      1.02367
     20       4.7823      0.00000
     21       5.0451      0.00000
     22       5.8599      0.00000
     23       6.5082      0.00000
     24       6.5849      0.00000

 k-point  18 :       0.3333    0.3333    0.1111
  band No.  band energies     occupation 
      1     -15.1175      1.00000
      2     -14.5335      1.00000
      3     -13.8238      1.00000
      4     -13.7025      1.00000
      5      -3.4089      1.00000
      6      -2.6308      1.00000
      7      -2.0440      1.00000
      8      -1.5395      1.00000
      9      -0.8355      1.00000
     10      -0.0380      1.00000
     11       0.1599      1.00000
     12       0.6728      1.00000
     13       0.7220      1.00000
     14       1.2078      1.00000
     15       1.5900      1.00000
     16       2.1729      1.00000
     17       2.2787      1.00000
     18       2.7237      1.00000
     19       4.0775      0.92780
     20       4.6692      0.00000
     21       4.7459      0.00000
     22       6.0097      0.00000
     23       6.3566      0.00000
     24       7.0528      0.00000

 k-point  19 :       0.5000    0.3333    0.1111
  band No.  band energies     occupation 
      1     -14.8667      1.00000
      2     -14.7667      1.00000
      3     -13.8188      1.00000
      4     -13.7426      1.00000
      5      -3.3023      1.00000
      6      -2.9946      1.00000
      7      -1.9931      1.00000
      8      -1.6684      1.00000
      9      -0.3805      1.00000
     10       0.1025      1.00000
     11       0.5364      1.00000
     12       0.6774      1.00000
     13       0.8527      1.00000
     14       0.9344      1.00000
     15       1.5539      1.00000
     16       1.7112      1.00000
     17       2.5016      1.00000
     18       2.6195      1.00000
     19       4.1942      0.57373
     20       4.2838      0.00000
     21       4.7120      0.00000
     22       6.0453      0.00000
     23       6.5086      0.00000
     24       6.8985      0.00000

 k-point  20 :       0.5000    0.5000    0.1111
  band No.  band energies     occupation 
      1     -14.8277      1.00000
      2     -14.7165      1.00000
      3     -13.8754      1.00000
      4     -13.7828      1.00000
      5      -3.4202      1.00000
      6      -3.1235      1.00000
      7      -2.0290      1.00000
      8      -1.7162      1.00000
      9       0.0007      1.00000
     10       0.4698      1.00000
[...]
     24       6.6583      0.00000

 k-point  39 :       0.5000    0.3333    0.3333
  band No.  band energies     occupation 
      1     -14.3199      1.00000
      2     -14.2509      1.00000
      3     -13.8994      1.00000
      4     -13.8184      1.00000
      5      -2.6688      1.00000
      6      -2.5307      1.00000
      7      -2.4650      1.00000
      8      -2.3702      1.00000
      9      -1.2044      1.00000
     10      -0.7292      1.00000
     11       0.0391      1.00000
     12       0.2473      1.00000
     13       0.5431      1.00000
     14       1.2929      1.00000
     15       1.9408      1.00000
     16       2.0831      1.00000
     17       2.5203      1.00000
     18       3.1076      1.00000
     19       3.6348      1.00000
     20       4.8748      0.00000
     21       5.3135      0.00000
     22       5.4720      0.00000
     23       5.9787      0.00000
     24       6.4253      0.00000

 k-point  40 :       0.5000    0.5000    0.3333
  band No.  band energies     occupation 
      1     -14.2936      1.00000
      2     -14.1980      1.00000
      3     -13.9488      1.00000
      4     -13.8380      1.00000
      5      -2.7882      1.00000
      6      -2.6446      1.00000
      7      -2.5606      1.00000
      8      -2.4149      1.00000
      9      -1.1416      1.00000
     10      -0.6419      1.00000
     11       0.0797      1.00000
     12       0.2765      1.00000
     13       0.6083      1.00000
     14       1.5826      1.00000
     15       1.8907      1.00000
     16       2.0648      1.00000
     17       2.4335      1.00000
     18       3.2027      1.00000
     19       3.7177      1.00000
     20       4.7985      0.00000
     21       5.3010      0.00000
     22       5.3986      0.00000
     23       6.2225      0.00000
     24       6.6085      0.00000

 k-point  41 :       0.0000    0.0000    0.4444
  band No.  band energies     occupation 
      1     -14.4333      1.00000
      2     -14.0286      1.00000
      3     -13.8296      1.00000
      4     -13.7106      1.00000
      5      -2.4619      1.00000
      6      -2.1209      1.00000
      7      -1.6870      1.00000
      8      -1.6429      1.00000
      9      -1.2573      1.00000
     10      -1.2405      1.00000
     11      -0.3866      1.00000
     12      -0.2844      1.00000
     13      -0.0762      1.00000
     14       0.8917      1.00000
     15       1.1491      1.00000
     16       1.4832      1.00000
     17       2.3286      1.00000
     18       3.3729      1.00000
     19       4.1837      0.80454
     20       5.0757      0.00000
     21       5.3861      0.00000
     22       5.7782      0.00000
     23       5.9580      0.00000
     24       6.1741      0.00000

 k-point  42 :       0.1667    0.0000    0.4444
  band No.  band energies     occupation 
      1     -14.3913      1.00000
      2     -14.0168      1.00000
      3     -13.8541      1.00000
      4     -13.7368      1.00000
      5      -2.4214      1.00000
      6      -2.2237      1.00000
      7      -2.0572      1.00000
      8      -1.8545      1.00000
      9      -1.1487      1.00000
     10      -0.9277      1.00000
     11      -0.3974      1.00000
     12      -0.0695      1.00000
     13       0.1295      1.00000
     14       1.0199      1.00000
     15       1.1122      1.00000
     16       1.4229      1.00000
     17       2.3428      1.00000
     18       3.2792      1.00000
     19       3.9936      1.00430
     20       5.0856      0.00000
     21       5.4190      0.00000
     22       5.6002      0.00000
     23       5.6860      0.00000
     24       6.1742      0.00000

 k-point  43 :       0.3333    0.0000    0.4444
  band No.  band energies     occupation 
      1     -14.2786      1.00000
      2     -14.0147      1.00000
      3     -13.9042      1.00000
      4     -13.7956      1.00000
      5      -2.6813      1.00000
      6      -2.5305      1.00000
      7      -2.0022      1.00000
      8      -1.7997      1.00000
      9      -1.2297      1.00000
     10      -0.7186      1.00000
     11      -0.4367      1.00000
     12       0.1333      1.00000
     13       0.5000      1.00000
     14       0.7583      1.00000
     15       1.4188      1.00000
     16       1.8969      1.00000
     17       2.3765      1.00000
     18       2.9251      1.00000
     19       3.5074      1.00000
     20       5.0199      0.00000
     21       5.3217      0.00000
     22       5.4799      0.00000
     23       5.4975      0.00000
     24       6.1106      0.00000

 k-point  44 :       0.5000    0.0000    0.4444
  band No.  band energies     occupation 
      1     -14.1557      1.00000
      2     -14.1002      1.00000
      3     -13.8950      1.00000
      4     -13.8390      1.00000
      5      -2.8087      1.00000
      6      -2.7067      1.00000
      7      -1.7885      1.00000
      8      -1.7645      1.00000
      9      -1.1764      1.00000
     10      -1.0246      1.00000
     11      -0.0388      1.00000
     12       0.0117      1.00000
     13       0.4452      1.00000
     14       0.6145      1.00000
     15       2.1203      1.00000
     16       2.2458      1.00000
     17       2.3236      1.00000
     18       2.5817      1.00000
     19       3.0524      1.00000
     20       4.9085      0.00000
     21       5.3436      0.00000
     22       5.3873      0.00000
     23       5.5157      0.00000
     24       6.0579      0.00000

 k-point  45 :       0.1667    0.1667    0.4444
  band No.  band energies     occupation 
      1     -14.3514      1.00000
      2     -14.0139      1.00000
      3     -13.8780      1.00000
      4     -13.7484      1.00000
      5      -2.5357      1.00000
      6      -2.2695      1.00000
      7      -2.0552      1.00000
      8      -1.8685      1.00000
      9      -1.6877      1.00000
     10      -0.5774      1.00000
     11      -0.0862      1.00000
     12       0.0231      1.00000
     13       0.0895      1.00000
     14       1.1586      1.00000
     15       1.2021      1.00000
     16       1.4643      1.00000
     17       2.3741      1.00000
     18       3.3020      1.00000
     19       3.7661      1.01120
     20       4.9481      0.00000
     21       5.3145      0.00000
     22       5.5077      0.00000
     23       5.6164      0.00000
     24       6.3510      0.00000

 k-point  46 :       0.3333    0.1667    0.4444
  band No.  band energies     occupation 
      1     -14.2463      1.00000
      2     -14.0232      1.00000
      3     -13.9143      1.00000
      4     -13.7961      1.00000
      5      -2.7153      1.00000
      6      -2.5215      1.00000
      7      -2.2152      1.00000
      8      -1.8417      1.00000
      9      -1.5349      1.00000
     10      -0.4924      1.00000
     11      -0.3379      1.00000
     12       0.0427      1.00000
     13       0.3911      1.00000
     14       1.1635      1.00000
     15       1.5356      1.00000
     16       2.0660      1.00000
     17       2.3942      1.00000
     18       3.0094      1.00000
     19       3.4401      1.00000
     20       4.8794      0.00000
     21       5.2620      0.00000
     22       5.5019      0.00000
     23       5.5376      0.00000
     24       6.2607      0.00000

 k-point  47 :       0.5000    0.1667    0.4444
  band No.  band energies     occupation 
      1     -14.1410      1.00000
      2     -14.0844      1.00000
      3     -13.9065      1.00000
      4     -13.8430      1.00000
      5      -2.8228      1.00000
      6      -2.6990      1.00000
      7      -1.9995      1.00000
      8      -1.9518      1.00000
      9      -1.1943      1.00000
     10      -0.9750      1.00000
     11      -0.2169      1.00000
     12      -0.1029      1.00000
     13       0.6375      1.00000
     14       0.9709      1.00000
     15       2.1586      1.00000
     16       2.2294      1.00000
     17       2.3730      1.00000
     18       2.7741      1.00000
     19       3.1611      1.00000
     20       5.0425      0.00000
     21       5.3552      0.00000
     22       5.4258      0.00000
     23       5.5365      0.00000
     24       6.0287      0.00000

 k-point  48 :       0.3333    0.3333    0.4444
  band No.  band energies     occupation 
      1     -14.1658      1.00000
      2     -14.0379      1.00000
      3     -13.9295      1.00000
      4     -13.8227      1.00000
      5      -2.7967      1.00000
      6      -2.5087      1.00000
      7      -2.3960      1.00000
      8      -2.2529      1.00000
      9      -1.3499      1.00000
     10      -0.7569      1.00000
     11      -0.3474      1.00000
     12      -0.0714      1.00000
     13       0.6557      1.00000
     14       1.4388      1.00000
     15       1.9388      1.00000
     16       2.3739      1.00000
     17       2.4171      1.00000
     18       2.9390      1.00000
     19       3.5058      1.00000
     20       5.0282      0.00000
     21       5.3232      0.00000
     22       5.3769      0.00000
     23       5.5021      0.00000
     24       6.4676      0.00000

 k-point  49 :       0.5000    0.3333    0.4444
  band No.  band energies     occupation 
      1     -14.1091      1.00000
      2     -14.0437      1.00000
      3     -13.9390      1.00000
      4     -13.8530      1.00000
      5      -2.8092      1.00000
      6      -2.6993      1.00000
      7      -2.3665      1.00000
      8      -2.2290      1.00000
      9      -1.3349      1.00000
     10      -0.9286      1.00000
     11      -0.4321      1.00000
     12      -0.0925      1.00000
     13       0.8389      1.00000
     14       1.5100      1.00000
     15       2.1270      1.00000
     16       2.3173      1.00000
     17       2.4154      1.00000
     18       3.1920      1.00000
     19       3.4123      1.00000
     20       5.1437      0.00000
     21       5.2147      0.00000
     22       5.5550      0.00000
     23       5.7693      0.00000
     24       6.1463      0.00000

 k-point  50 :       0.5000    0.5000    0.4444
  band No.  band energies     occupation 
      1     -14.0915      1.00000
      2     -14.0026      1.00000
      3     -13.9764      1.00000
      4     -13.8592      1.00000
      5      -2.7237      1.00000
      6      -2.6755      1.00000
      7      -2.6557      1.00000
      8      -2.3102      1.00000
      9      -1.4417      1.00000
     10      -0.8840      1.00000
     11      -0.5295      1.00000
     12      -0.0574      1.00000
     13       0.9036      1.00000
     14       1.8075      1.00000
     15       2.0453      1.00000
     16       2.3186      1.00000
     17       2.4886      1.00000
     18       3.4624      1.00000
     19       3.5058      1.00000
     20       5.0757      0.00000
     21       5.1777      0.00000
     22       5.5149      0.00000
     23       6.0494      0.00000
     24       6.3533      0.00000


--------------------------------------------------------------------------------------------------------


 soft charge-density along one line, spin component           1
         0         1         2         3         4         5         6         7         8         9
 total charge-density along one line
 
 soft charge-density along one line, spin component           2
         0         1         2         3         4         5         6         7         8         9
 total charge-density along one line
 
 pseudopotential strength for first ion, spin component:           1
 12.348 -15.041  -0.010  -0.000  -0.010   0.012   0.000   0.012
-15.041  18.341   0.012   0.000   0.012  -0.016  -0.000  -0.016
 -0.010   0.012  -8.599  -0.000  -0.062  10.356   0.000   0.084
 -0.000   0.000  -0.000  -8.651   0.000   0.000  10.427  -0.000
 -0.010   0.012  -0.062   0.000  -8.599   0.084  -0.000  10.356
  0.012  -0.016  10.356   0.000   0.084 -12.323  -0.000  -0.113
  0.000  -0.000   0.000  10.427  -0.000  -0.000 -12.422   0.000
  0.012  -0.016   0.084  -0.000  10.356  -0.113   0.000 -12.323
 pseudopotential strength for first ion, spin component:           2
 12.377 -15.078  -0.006  -0.000  -0.006   0.007   0.000   0.007
-15.078  18.389   0.007   0.000   0.007  -0.009  -0.000  -0.009
 -0.006   0.007  -8.646  -0.000  -0.052  10.422   0.000   0.069
 -0.000   0.000  -0.000  -8.639   0.000   0.000  10.410  -0.000
 -0.006   0.007  -0.052   0.000  -8.646   0.069  -0.000  10.422
  0.007  -0.009  10.422   0.000   0.069 -12.416  -0.000  -0.093
  0.000  -0.000   0.000  10.410  -0.000  -0.000 -12.398   0.000
  0.007  -0.009   0.069  -0.000  10.422  -0.093   0.000 -12.416
 total augmentation occupancy for first ion, spin component:           1
  2.574   0.336   0.028   0.000   0.028   0.011  -0.000   0.011
  0.336   0.067   0.025   0.000   0.025   0.005   0.000   0.005
  0.028   0.025   2.019   0.000   0.039   0.208   0.000   0.061
  0.000  -0.000   0.000   2.022   0.000   0.000   0.231   0.000
  0.028   0.025   0.039   0.000   2.019   0.061   0.000   0.208
  0.011   0.005   0.208   0.000   0.061   0.029   0.000   0.011
  0.000   0.000   0.000   0.231   0.000   0.000   0.031   0.000
  0.011   0.005   0.061   0.000   0.208   0.011   0.000   0.029
 total augmentation occupancy for first ion, spin component:           2
  0.006   0.003   0.003   0.000   0.003  -0.001   0.000  -0.001
  0.003  -0.001  -0.009   0.000  -0.009  -0.002   0.000  -0.002
  0.003  -0.009  -0.036   0.000   0.012   0.007   0.000  -0.002
  0.000  -0.000   0.000   0.039   0.000   0.000  -0.002   0.000
  0.003  -0.009   0.012   0.000  -0.036  -0.002   0.000   0.007
 -0.001  -0.002   0.007   0.000  -0.002   0.001   0.000   0.000
  0.000   0.000   0.000  -0.002   0.000   0.000  -0.001   0.000
 -0.001  -0.002  -0.002   0.000   0.007   0.000   0.000   0.001


------------------------ aborting loop because EDIFF is reached ----------------------------------------


    CHARGE:  cpu time    0.02: real time    0.02
    FORLOC:  cpu time    0.00: real time    0.00
    FORNL :  cpu time    0.05: real time    0.06
    STRESS:  cpu time    0.13: real time    0.13
    FORCOR:  cpu time    0.00: real time    0.01
    FORHAR:  cpu time    0.00: real time    0.00
    MIXING:  cpu time    0.00: real time    0.00

  FORCE on cell =-STRESS in cart. coord.  units (eV):
  Direction    XX          YY          ZZ          XY          YZ          ZX
  --------------------------------------------------------------------------------------
  Alpha Z   174.68625   174.68625   174.68625
  Ewald    -830.66329  -830.66329  -581.54861     0.00000     0.00000     0.00000
  Hartree   147.33192   147.33192   252.38939    -0.00000    -0.00000    -0.00000
  E(xc)    -184.58623  -184.58623  -184.82443    -0.00000    -0.00000     0.00000
  Local      73.51946    73.51946  -261.85115     0.00000    -0.00000     0.00000
  n-local  -133.39403  -133.16267  -129.14894     0.19726    -0.34283     0.08368
  augment    87.62796    87.62796    84.87466    -0.00000    -0.00000     0.00000
  Kinetic   666.38195   664.38537   645.24261    -1.32875    -0.08140    -0.97609
  Fock        0.00000     0.00000     0.00000     0.00000     0.00000     0.00000
  -------------------------------------------------------------------------------------
  Total       0.02139     0.02139    -0.18021    -0.00000     0.00000     0.00000
  in kB       0.62918     0.62918    -5.30122    -0.00000     0.00000     0.00000
  external pressure =       -1.35 kB  Pullay stress =        0.00 kB


 VOLUME and BASIS-vectors are now :
 -----------------------------------------------------------------------------
  energy-cutoff  :      520.00
  volume of cell :       54.46
      direct lattice vectors                 reciprocal lattice vectors
     4.378352048  0.000000000  0.000000000     0.228396435  0.000000000  0.000000000
     0.000000000  4.378352048  0.000000000     0.000000000  0.228396435  0.000000000
     0.000000000  0.000000000  2.841113926     0.000000000  0.000000000  0.351974622

  length of vectors
     4.378352048  4.378352048  2.841113926     0.228396435  0.228396435  0.351974622


 FORCES acting on ions
    electron-ion (+dipol)            ewald-force                    non-local-force                 convergence-correction
 -----------------------------------------------------------------------------------------------
   0.265E+02 0.265E+02 -.136E-04   -.296E+02 -.296E+02 -.621E-14   0.311E+01 0.311E+01 -.629E-17   0.640E-03 0.640E-03 0.421E-13
   0.265E+02 -.265E+02 0.453E-11   -.296E+02 0.296E+02 -.739E-14   0.311E+01 -.311E+01 -.413E-17   0.640E-03 -.640E-03 0.593E-13
   -.265E+02 0.265E+02 0.103E-11   0.296E+02 -.296E+02 -.770E-14   -.311E+01 0.311E+01 -.335E-17   -.640E-03 0.640E-03 0.334E-13
   -.265E+02 -.265E+02 0.136E-04   0.296E+02 0.296E+02 -.950E-14   -.311E+01 -.311E+01 -.509E-17   -.640E-03 -.640E-03 0.157E-13
   0.213E-13 0.148E-13 0.209E-12   -.448E-13 0.117E-13 0.115E-13   0.160E-22 0.225E-22 -.942E-23   -.652E-13 -.306E-13 0.119E-13
   0.117E-11 -.601E-12 -.412E-12   -.690E-13 -.827E-13 0.122E-13   -.243E-22 0.152E-22 -.825E-23   -.316E-13 -.480E-13 0.280E-13
 -----------------------------------------------------------------------------------------------
   0.241E-11 0.687E-12 0.257E-12   0.141E-13 0.142E-13 -.710E-14   -.444E-15 0.888E-15 -.189E-16   -.227E-12 -.229E-12 0.191E-12
 
 
 POSITION                                       TOTAL-FORCE (eV/Angst)
 -----------------------------------------------------------------------------------
      1.32826      1.32826      0.00000         0.010552      0.010552      0.000000
      3.51744      0.86091      1.42056         0.010552     -0.010552      0.000000
      0.86091      3.51744      1.42056        -0.010552      0.010552      0.000000
      3.05009      3.05009      0.00000        -0.010552     -0.010552      0.000000
      0.00000      0.00000      0.00000         0.000000      0.000000     -0.000000
      2.18918      2.18918      1.42056         0.000000     -0.000000     -0.000000
 -----------------------------------------------------------------------------------
    total drift:                                0.000000      0.000000      0.000000


--------------------------------------------------------------------------------------------------------



  FREE ENERGIE OF THE ION-ELECTRON SYSTEM (eV)
  ---------------------------------------------------
  free  energy   TOTEN  =       -50.36840845 eV

  energy  without entropy=      -50.36840845  energy(sigma->0) =      -50.36840845
 


--------------------------------------------------------------------------------------------------------


    POTLOK:  cpu time    0.01: real time    0.01


--------------------------------------------------------------------------------------------------------


     LOOP+:  cpu time   12.44: real time   14.05
    4ORBIT:  cpu time    0.00: real time    0.00
 BZINTS: Fermi energy:  4.125806; 38.000000 electrons
         Band energy:-105.307089;  BLOECHL correction: -0.008828

 total amount of memory used by VASP on root node    38245. kBytes
========================================================================

   base      :      30000. kBytes
   nonl-proj :       5566. kBytes
   fftplans  :        175. kBytes
   grid      :        446. kBytes
   one-center:         62. kBytes
   wavefun   :       1996. kBytes
 
  
  
 General timing and accounting informations for this job:
 ========================================================
  
                  Total CPU time used (sec):       13.059
                            User time (sec):       12.903
                          System time (sec):        0.156
                         Elapsed time (sec):       15.680
  
                   Maximum memory used (kb):       79204.
                   Average memory used (kb):           0.
  
                          Minor page faults:        12908
                          Major page faults:            0
                 Voluntary context switches:         2029
