 vasp.5.3.3 18Dez12 (build May 12 2016 12:04:25) complex                        
  
 executed on             LinuxIFC date 2019.05.14  18:55:20
 running on   64 total cores
 distrk:  each k-point on   64 cores,    1 groups
 distr:  one band on NCORES_PER_BAND=   8 cores,    8 groups


--------------------------------------------------------------------------------------------------------


 INCAR:
 POTCAR:   PAW_PBE Mn 06Sep2000                   
 POTCAR:   PAW_PBE O_s 07Sep2000                  
 POTCAR:   PAW_PBE Mn 06Sep2000                   
  local pseudopotential read in
  partial core-charges read in
  atomic valenz-charges read in
  non local Contribution for L=           2  read in
    real space projection operators read in
  non local Contribution for L=           2  read in
    real space projection operators read in
  non local Contribution for L=           0  read in
    real space projection operators read in
  non local Contribution for L=           0  read in
    real space projection operators read in
  non local Contribution for L=           1  read in
    real space projection operators read in
  non local Contribution for L=           1  read in
    real space projection operators read in
    PAW grid and wavefunctions read in
 
   number of l-projection  operators is LMAX  =           6
   number of lm-projection operators is LMMAX =          18
 
 POTCAR:   PAW_PBE O_s 07Sep2000                  
  local pseudopotential read in
  atomic valenz-charges read in
  non local Contribution for L=           0  read in
    real space projection operators read in
  non local Contribution for L=           0  read in
    real space projection operators read in
  non local Contribution for L=           1  read in
    real space projection operators read in
  non local Contribution for L=           1  read in
    real space projection operators read in
    PAW grid and wavefunctions read in
 
   number of l-projection  operators is LMAX  =           4
   number of lm-projection operators is LMMAX =           8
 

 ----------------------------------------------------------------------------- 
|                                                                             |
|  ADVICE TO THIS USER RUNNING 'VASP/VAMP'   (HEAR YOUR MASTER'S VOICE ...):  |
|                                                                             |
|      You have a (more or less) 'large supercell' and for larger cells       |
|      it might be more efficient to use real space projection operators      |
|      So try LREAL= Auto  in the INCAR   file.                               |
|      Mind: If you want to do a very accurate calculations keep the          |
|      reciprocal projection scheme          (i.e. LREAL=.FALSE.)             |
|                                                                             |
 ----------------------------------------------------------------------------- 

 PAW_PBE Mn 06Sep2000                   :
 energy of atom  1       EATOM= -416.8732
 kinetic energy error for atom=    0.0155 (will be added to EATOM!!)
 PAW_PBE O_s 07Sep2000                  :
 energy of atom  2       EATOM= -432.2909
 kinetic energy error for atom=    0.0182 (will be added to EATOM!!)
 
 
 POSCAR: (Mn O2)12  (P1) ~ (Pearson #1251171)_1 0
  positions in direct lattice
  velocities in cartesian coordinates
  No initial velocities read in
 exchange correlation table for  LEXCH =        8
   RHO(1)=    0.500       N(1)  =     2000
   RHO(2)=  100.500       N(2)  =     4000
 


--------------------------------------------------------------------------------------------------------


 ion  position               nearest neighbor table
   1  0.308  0.513  0.120-  28 1.81  34 1.90  22 1.94  13 1.97  11 2.66   5 2.85
   2  0.692  0.013  0.380-  27 1.81  33 1.90  21 1.94  14 1.97  12 2.66   6 2.85
   3  0.692  0.487  0.880-  26 1.81  36 1.90  24 1.94  15 1.97   9 2.66   7 2.85
   4  0.308  0.987  0.620-  25 1.81  35 1.90  23 1.94  16 1.97  10 2.66   8 2.85
   5  0.462  0.513  0.120-  32 1.81  30 1.90  34 1.90  18 1.94  22 1.94  17 1.97   7 2.66  11 2.66
                             9 2.85   1 2.85
   6  0.538  0.013  0.380-  31 1.81  29 1.90  33 1.90  17 1.94  21 1.94  18 1.97   8 2.66  12 2.66
                            10 2.85   2 2.85
   7  0.538  0.487  0.880-  30 1.81  32 1.90  36 1.90  20 1.94  24 1.94  19 1.97   5 2.66   9 2.66
                             3 2.85  11 2.85
   8  0.462  0.987  0.620-  29 1.81  31 1.90  35 1.90  19 1.94  23 1.94  20 1.97   6 2.66  10 2.66
                             4 2.85  12 2.85
   9  0.615  0.513  0.120-  36 1.81  26 1.90  30 1.90  14 1.94  18 1.94  21 1.97   3 2.66   7 2.66
                             5 2.85
  10  0.385  0.013  0.380-  35 1.81  25 1.90  29 1.90  13 1.94  17 1.94  22 1.97   4 2.66   8 2.66
                             6 2.85
  11  0.385  0.487  0.880-  34 1.81  28 1.90  32 1.90  16 1.94  20 1.94  23 1.97   1 2.66   5 2.66
                             7 2.85
  12  0.615  0.987  0.620-  33 1.81  27 1.90  31 1.90  15 1.94  19 1.94  24 1.97   2 2.66   6 2.66
                             8 2.85
  13  0.308  0.793  0.284-  10 1.94   1 1.97
  14  0.692  0.293  0.216-   9 1.94   2 1.97
  15  0.692  0.207  0.716-  12 1.94   3 1.97
  16  0.308  0.707  0.784-  11 1.94   4 1.97
  17  0.462  0.793  0.284-   6 1.94  10 1.94   5 1.97
  18  0.538  0.293  0.216-   5 1.94   9 1.94   6 1.97
  19  0.538  0.207  0.716-   8 1.94  12 1.94   7 1.97
  20  0.462  0.707  0.784-   7 1.94  11 1.94   8 1.97
  21  0.615  0.793  0.284-   2 1.94   6 1.94   9 1.97
  22  0.385  0.293  0.216-   1 1.94   5 1.94  10 1.97
  23  0.385  0.207  0.716-   4 1.94   8 1.94  11 1.97
  24  0.615  0.707  0.784-   3 1.94   7 1.94  12 1.97
  25  0.308  0.231  0.464-   4 1.81  10 1.90
  26  0.692  0.731  0.036-   3 1.81   9 1.90
  27  0.692  0.769  0.536-   2 1.81  12 1.90
  28  0.308  0.269  0.964-   1 1.81  11 1.90
  29  0.462  0.231  0.464-   8 1.81   6 1.90  10 1.90
  30  0.538  0.731  0.036-   7 1.81   5 1.90   9 1.90
  31  0.538  0.769  0.536-   6 1.81   8 1.90  12 1.90
  32  0.462  0.269  0.964-   5 1.81   7 1.90  11 1.90
  33  0.615  0.231  0.464-  12 1.81   2 1.90   6 1.90
  34  0.385  0.731  0.036-  11 1.81   1 1.90   5 1.90
  35  0.385  0.769  0.536-  10 1.81   4 1.90   8 1.90
  36  0.615  0.269  0.964-   9 1.81   3 1.90   7 1.90
 
  LATTYP: Found a simple orthorhombic cell.
 ALAT       =     4.4533000000
 B/A-ratio  =     2.0934812386
 C/A-ratio  =     4.1642377563
  
  Lattice vectors:
  
 A1 = (   0.0000000000,   4.4533000000,   0.0000000000)
 A2 = (   0.0000000000,   0.0000000000,  -9.3229000000)
 A3 = ( -18.5446000000,   0.0000000000,   0.0000000000)


Analysis of symmetry for initial positions (statically):
=====================================================================
 Subroutine PRICEL returns:
 Original cell was already a primitive cell.
 

 Routine SETGRP: Setting up the symmetry group for a 
 simple orthorhombic supercell.


 Subroutine GETGRP returns: Found  4 space group operations
 (whereof  2 operations were pure point group operations)
 out of a pool of  8 trial point group operations.


The static configuration has the point symmetry S_2 .
 The point group associated with its full space group is C_2h.


Analysis of symmetry for dynamics (positions and initial velocities):
=====================================================================
 Subroutine PRICEL returns:
 Original cell was already a primitive cell.
 

 Routine SETGRP: Setting up the symmetry group for a 
 simple orthorhombic supercell.


 Subroutine GETGRP returns: Found  4 space group operations
 (whereof  2 operations were pure point group operations)
 out of a pool of  8 trial point group operations.


The dynamic configuration has the point symmetry S_2 .
 The point group associated with its full space group is C_2h.


Analysis of constrained symmetry for selective dynamics:
=====================================================================
 Subroutine PRICEL returns:
 Original cell was already a primitive cell.
 

 Routine SETGRP: Setting up the symmetry group for a 
 simple orthorhombic supercell.


 Subroutine GETGRP returns: Found  2 space group operations
 (whereof  1 operations were pure point group operations)
 out of a pool of  8 trial point group operations.


The constrained configuration has the point symmetry C_1 .
 The point group associated with its full space group is C_1h.


Analysis of magnetic symmetry:
=====================================================================

 Subroutine MAGSYM returns: Found  1 space group operations
 (whereof  1 operations were pure point group operations)
 out of a pool of  2 trial space group operations
 (whereof  1 operations were pure point group operations)
 and found also     1 'primitive' translations


The magnetic configuration has the point symmetry C_1 .


 irot  :   1
 --------------------------------------------------------------------
 isymop:   1   0   0
           0   1   0
           0   0   1

 gtrans:     0.0000000     0.0000000     0.0000000

 ptrans:     0.0000000     0.0000000     0.0000000
 rotmap:
 (   1->   1)  (   2->   2)  (   3->   3)  (   4->   4)  (   5->   5) 
 (   6->   6)  (   7->   7)  (   8->   8)  (   9->   9)  (  10->  10) 
 (  11->  11)  (  12->  12)  (  13->  13)  (  14->  14)  (  15->  15) 
 (  16->  16)  (  17->  17)  (  18->  18)  (  19->  19)  (  20->  20) 
 (  21->  21)  (  22->  22)  (  23->  23)  (  24->  24)  (  25->  25) 
 (  26->  26)  (  27->  27)  (  28->  28)  (  29->  29)  (  30->  30) 
 (  31->  31)  (  32->  32)  (  33->  33)  (  34->  34)  (  35->  35) 
 (  36->  36) 
 
 
 KPOINTS: Automatic mesh                          

Automatic generation of k-mesh.
Space group operators:
 irot       det(A)        alpha          n_x          n_y          n_z        tau_x        tau_y        tau_z
    1     1.000000     0.000001     1.000000     0.000000     0.000000     0.000000     0.000000     0.000000
 
 Subroutine IBZKPT returns following result:
 ===========================================
 
 Found      2 irreducible k-points:
 
 Following reciprocal coordinates:
            Coordinates               Weight
  0.000000  0.000000  0.000000      1.000000
  0.000000  0.500000  0.000000      1.000000
 
 Following cartesian coordinates:
            Coordinates               Weight
  0.000000  0.000000  0.000000      1.000000
  0.000000  0.112276  0.000000      1.000000
 


--------------------------------------------------------------------------------------------------------




 Dimension of arrays:
   k-points           NKPTS =      2   k-points in BZ     NKDIM =      2   number of bands    NBANDS=    136
   number of dos      NEDOS =    301   number of ions     NIONS =     36
   non local maximal  LDIM  =      6   non local SUM 2l+1 LMDIM =     18
   total plane-waves  NPLWV = 103680
   max r-space proj   IRMAX =      1   max aug-charges    IRDMAX=   5150
   dimension x,y,z NGX =    90 NGY =   24 NGZ =   48
   dimension x,y,z NGXF=   180 NGYF=   48 NGZF=   96
   support grid    NGXF=   180 NGYF=   48 NGZF=   96
   ions per type =              12  24
 NGX,Y,Z   is equivalent  to a cutoff of   8.07,  8.96,  8.56 a.u.
 NGXF,Y,Z  is equivalent  to a cutoff of  16.14, 17.92, 17.12 a.u.


 I would recommend the setting:
   dimension x,y,z NGX =    87 NGY =   21 NGZ =   44
 SYSTEM =  (Mn O2)12  (P1) ~ (Pearson              
 POSCAR =  (Mn O2)12  (P1) ~ (Pearson #1251171)_1 0

 Startparameter for this run:
   NWRITE =      1    write-flag & timer
   PREC   = normal    normal or accurate (medium, high low for compatibility)
   ISTART =      0    job   : 0-new  1-cont  2-samecut
   ICHARG =      2    charge: 1-file 2-atom 10-const
   ISPIN  =      2    spin polarized calculation?
   LNONCOLLINEAR =      F non collinear calculations
   LSORBIT =      F    spin-orbit coupling
   INIWAV =      1    electr: 0-lowe 1-rand  2-diag
   LASPH  =      F    aspherical Exc in radial PAW
   METAGGA=      F    non-selfconsistent MetaGGA calc.

 Electronic Relaxation 1
   ENCUT  =  367.7 eV  27.02 Ry    5.20 a.u.  28.99  6.96 14.58*2*pi/ulx,y,z
   ENINI  =  367.7     initial cutoff
   ENAUG  =  500.7 eV  augmentation charge cutoff
   NELM   =     60;   NELMIN=  2; NELMDL= -5     # of ELM steps 
   EDIFF  = 0.1E-03   stopping-criterion for ELM
   LREAL  =      F    real-space projection
   NLSPLINE    = F    spline interpolate recip. space projectors
   LCOMPAT=      F    compatible to vasp.4.4
   GGA_COMPAT  = T    GGA compatible to vasp.4.4-vasp.4.6
   LMAXPAW     = -100 max onsite density
   LMAXMIX     =    4 max onsite mixed and CHGCAR
   VOSKOWN=      1    Vosko Wilk Nusair interpolation
   ROPT   =    0.00000   0.00000
 Ionic relaxation
   EDIFFG = 0.1E-02   stopping-criterion for IOM
   NSW    =    111    number of steps for IOM
   NBLOCK =      1;   KBLOCK =    111    inner block; outer block 
   IBRION =      2    ionic relax: 0-MD 1-quasi-New 2-CG
   NFREE  =      1    steps in history (QN), initial steepest desc. (CG)
   ISIF   =      2    stress and relaxation
   IWAVPR =     11    prediction:  0-non 1-charg 2-wave 3-comb
   ISYM   =      2    0-nonsym 1-usesym 2-fastsym
   LCORR  =      T    Harris-Foulkes like correction to forces

   POTIM  = 0.5000    time-step for ionic-motion
   TEIN   =    0.0    initial temperature
   TEBEG  =    0.0;   TEEND  =   0.0 temperature during run
   SMASS  =  -3.00    Nose mass-parameter (am)
   estimated Nose-frequenzy (Omega)   =  0.10E-29 period in steps =****** mass=  -0.786E-26a.u.
   SCALEE = 1.0000    scale energy and forces
   NPACO  =    256;   APACO  = 16.0  distance and # of slots for P.C.
   PSTRESS=    0.0 pullay stress

  Mass of Ions in am
   POMASS =  54.94 16.00
  Ionic Valenz
   ZVAL   =   7.00  6.00
  Atomic Wigner-Seitz radii
   RWIGS  =  -1.00 -1.00
  virtual crystal weights 
   VCA    =   1.00  1.00
   NELECT =     228.0000    total number of electrons
   NUPDOWN=      -1.0000    fix difference up-down

 DOS related values:
   EMIN   =  10.00;   EMAX   =-10.00  energy-range for DOS
   EFERMI =   0.00
   ISMEAR =     1;   SIGMA  =   0.20  broadening in eV -4-tet -1-fermi 0-gaus

 Electronic relaxation 2 (details)
   IALGO  =     38    algorithm
   LDIAG  =      T    sub-space diagonalisation (order eigenvalues)
   LSUBROT=      T    optimize rotation matrix (better conditioning)
   TURBO    =      0    0=normal 1=particle mesh
   IRESTART =      0    0=no restart 2=restart with 2 vectors
   NREBOOT  =      0    no. of reboots
   NMIN     =      0    reboot dimension
   EREF     =   0.00    reference energy to select bands
   IMIX   =      4    mixing-type and parameters
     AMIX     =   0.40;   BMIX     =  1.00
     AMIX_MAG =   1.60;   BMIX_MAG =  1.00
     AMIN     =   0.10
     WC   =   100.;   INIMIX=   1;  MIXPRE=   1;  MAXMIX= -45

 Intra band minimization:
   WEIMIN = 0.0010     energy-eigenvalue tresh-hold
   EBREAK =  0.18E-06  absolut break condition
   DEPER  =   0.30     relativ break condition  

   TIME   =   0.40     timestep for ELM

  volume/ion in A,a.u.               =      21.39       144.33
  Fermi-wavevector in a.u.,A,eV,Ry     =   1.091196  2.062062 16.200590  1.190710
  Thomas-Fermi vector in A             =   2.227437
 
 Write flags
   LWAVE  =      F    write WAVECAR
   LCHARG =      F    write CHGCAR
   LVTOT  =      F    write LOCPOT, total local potential
   LVHAR  =      F    write LOCPOT, Hartree potential only
   LELF   =      F    write electronic localiz. function (ELF)
   LORBIT =      0    0 simple, 1 ext, 2 COOP (PROOUT)


 Dipole corrections
   LMONO  =      F    monopole corrections only (constant potential shift)
   LDIPOL =      F    correct potential (dipole corrections)
   IDIPOL =      0    1-x, 2-y, 3-z, 4-all directions 
   EPSILON=  1.0000000 bulk dielectric constant

 LDA+U is selected, type is set to LDAUTYPE =  2
   angular momentum for each species LDAUL =     2   -1
   U (eV)           for each species LDAUU =   3.9  0.0
   J (eV)           for each species LDAUJ =   0.0  0.0
 Exchange correlation treatment:
   GGA     =    --    GGA type
   LEXCH   =     8    internal setting for exchange type
   VOSKOWN=      1    Vosko Wilk Nusair interpolation
   LHFCALC =     F    Hartree Fock is set to
   LHFONE  =     F    Hartree Fock one center treatment
   AEXX    =    0.0000 exact exchange contribution

 Linear response parameters
   LEPSILON=     F    determine dielectric tensor
   LRPA    =     F    only Hartree local field effects (RPA)
   LNABLA  =     F    use nabla operator in PAW spheres
   LVEL    =     F    velocity operator in full k-point grid
   LINTERFAST=   F  fast interpolation
   KINTER  =     0    interpolate to denser k-point grid
   CSHIFT  =0.1000    complex shift for real part using Kramers Kronig
   OMEGAMAX=  -1.0    maximum frequency
   DEG_THRESHOLD= 0.2000000E-02 threshold for treating states as degnerate
   RTIME   =    0.100 relaxation time in fs

 Orbital magnetization related:
   ORBITALMAG=     F  switch on orbital magnetization
   LCHIMAG   =     F  perturbation theory with respect to B field
   DQ        =  0.001000  dq finite difference perturbation B field



--------------------------------------------------------------------------------------------------------


 conjugate gradient relaxation of ions
   using selective dynamics as specified on POSCAR
 charge density and potential will be updated during run
 spin polarized calculation
 Variant of blocked Davidson
 Davidson routine will perform the subspace rotation
 perform sub-space diagonalisation
    after iterative eigenvector-optimisation
 modified Broyden-mixing scheme, WC =      100.0
 initial mixing is a Kerker type mixing with AMIX =  0.4000 and BMIX =      1.0000
 Hartree-type preconditioning will be used
 using additional bands           22
 reciprocal scheme for non local part
 use partial core corrections
 calculate Harris-corrections to forces 
   (improved forces if not selfconsistent)
 use gradient corrections 
 use of overlap-Matrix (Vanderbilt PP)
 Methfessel and Paxton  Order N= 1 SIGMA  =   0.20


--------------------------------------------------------------------------------------------------------


  energy-cutoff  :      367.69
  volume of cell :      769.93
      direct lattice vectors                 reciprocal lattice vectors
    18.544600000  0.000000000  0.000000000     0.053924053  0.000000000  0.000000000
     0.000000000  4.453300000  0.000000000     0.000000000  0.224552579  0.000000000
     0.000000000  0.000000000  9.322900000     0.000000000  0.000000000  0.107262762

  length of vectors
    18.544600000  4.453300000  9.322900000     0.053924053  0.224552579  0.107262762


 
 k-points in units of 2pi/SCALE and weight: Automatic mesh                          
   0.00000000  0.00000000  0.00000000       0.500
   0.00000000  0.11227629  0.00000000       0.500
 
 k-points in reciprocal lattice and weights: Automatic mesh                          
   0.00000000  0.00000000  0.00000000       0.500
   0.00000000  0.50000000  0.00000000       0.500
 
 position of ions in fractional coordinates (direct lattice) 
   0.30801689  0.51300000  0.12030000
   0.69198311  0.01300000  0.37970000
   0.69198311  0.48700000  0.87970000
   0.30801689  0.98700000  0.62030000
   0.46160338  0.51300000  0.12030000
   0.53839662  0.01300000  0.37970000
   0.53839662  0.48700000  0.87970000
   0.46160338  0.98700000  0.62030000
   0.61518987  0.51300000  0.12030000
   0.38481013  0.01300000  0.37970000
   0.38481013  0.48700000  0.87970000
   0.61518987  0.98700000  0.62030000
   0.30801689  0.79340000  0.28420000
   0.69198311  0.29340000  0.21580000
   0.69198311  0.20660000  0.71580000
   0.30801689  0.70660000  0.78420000
   0.46160338  0.79340000  0.28420000
   0.53839662  0.29340000  0.21580000
   0.53839662  0.20660000  0.71580000
   0.46160338  0.70660000  0.78420000
   0.61518987  0.79340000  0.28420000
   0.38481013  0.29340000  0.21580000
   0.38481013  0.20660000  0.71580000
   0.61518987  0.70660000  0.78420000
   0.30801689  0.23110000  0.46440000
   0.69198311  0.73110000  0.03560000
   0.69198311  0.76890000  0.53560000
   0.30801689  0.26890000  0.96440000
   0.46160338  0.23110000  0.46440000
   0.53839662  0.73110000  0.03560000
   0.53839662  0.76890000  0.53560000
   0.46160338  0.26890000  0.96440000
   0.61518987  0.23110000  0.46440000
   0.38481013  0.73110000  0.03560000
   0.38481013  0.76890000  0.53560000
   0.61518987  0.26890000  0.96440000
 
 position of ions in cartesian coordinates  (Angst):
   5.71205002  2.28454290  1.12154487
  12.83254998  0.05789290  3.53990513
  12.83254998  2.16875710  8.20135513
   5.71205002  4.39540710  5.78299487
   8.56025004  2.28454290  1.12154487
   9.98434996  0.05789290  3.53990513
   9.98434996  2.16875710  8.20135513
   8.56025004  4.39540710  5.78299487
  11.40845006  2.28454290  1.12154487
   7.13614994  0.05789290  3.53990513
   7.13614994  2.16875710  8.20135513
  11.40845006  4.39540710  5.78299487
   5.71205002  3.53324822  2.64956818
  12.83254998  1.30659822  2.01188182
  12.83254998  0.92005178  6.67333182
   5.71205002  3.14670178  7.31101818
   8.56025004  3.53324822  2.64956818
   9.98434996  1.30659822  2.01188182
   9.98434996  0.92005178  6.67333182
   8.56025004  3.14670178  7.31101818
  11.40845006  3.53324822  2.64956818
   7.13614994  1.30659822  2.01188182
   7.13614994  0.92005178  6.67333182
  11.40845006  3.14670178  7.31101818
   5.71205002  1.02915763  4.32955476
  12.83254998  3.25580763  0.33189524
  12.83254998  3.42414237  4.99334524
   5.71205002  1.19749237  8.99100476
   8.56025004  1.02915763  4.32955476
   9.98434996  3.25580763  0.33189524
   9.98434996  3.42414237  4.99334524
   8.56025004  1.19749237  8.99100476
  11.40845006  1.02915763  4.32955476
   7.13614994  3.25580763  0.33189524
   7.13614994  3.42414237  4.99334524
  11.40845006  1.19749237  8.99100476
 


--------------------------------------------------------------------------------------------------------


 k-point  1 :   0.0000 0.0000 0.0000  plane waves:   12281
 k-point  2 :   0.0000 0.5000 0.0000  plane waves:   12366

 maximum and minimum number of plane-waves per node :      1570     1484

 maximum number of plane-waves:     12366
 maximum index in each direction: 
   IXMAX=   28   IYMAX=    6   IZMAX=   14
   IXMIN=  -28   IYMIN=   -7   IZMIN=  -14

 WARNING: aliasing errors must be expected set NGX to 114 to avoid them
 WARNING: aliasing errors must be expected set NGY to  28 to avoid them
 WARNING: aliasing errors must be expected set NGZ to  58 to avoid them
 aliasing errors are usually negligible using standard VASP settings
 and one can safely disregard these warnings

 parallel 3D FFT for wavefunctions:
    minimum data exchange during FFTs selected (reduces bandwidth)
 parallel 3D FFT for charge:
    minimum data exchange during FFTs selected (reduces bandwidth)


 total amount of memory used by VASP on root node    36841. kBytes
========================================================================

   base      :      30000. kBytes
   nonl-proj :       1787. kBytes
   fftplans  :        902. kBytes
   grid      :       2239. kBytes
   one-center:        155. kBytes
   wavefun   :       1758. kBytes
 
 Broyden mixing: mesh for mixing (old mesh)
   NGX = 57   NGY = 13   NGZ = 29
  (NGX  =180   NGY  = 48   NGZ  = 96)
  gives a total of  21489 points

 initial charge density was supplied:
 charge density of overlapping atoms calculated
 number of electron     228.0000000 magnetization      -0.0000000
 keeping initial charge density in first step


--------------------------------------------------------------------------------------------------------


 Maximum index for augmentation-charges          321 (set IRDMAX)


--------------------------------------------------------------------------------------------------------


 First call to EWALD:  gamma=   0.193
 Maximum number of real-space cells 2x 5x 3
 Maximum number of reciprocal cells 5x 2x 3

 FEWALD executed in parallel
    FEWALD:  cpu time    0.00: real time    0.00


----------------------------------------- Iteration    1(   1)  ---------------------------------------


    POTLOK:  cpu time    0.03: real time    0.04
    SETDIJ:  cpu time    0.01: real time    0.01
     EDDAV:  cpu time    0.64: real time    0.64
       DOS:  cpu time    0.00: real time    0.00
    --------------------------------------------
      LOOP:  cpu time    0.68: real time    0.84

 eigenvalue-minimisations  :  1088
 total energy-change (2. order) : 0.2813109E+04  (-0.8024885E+04)
 number of electron     228.0000000 magnetization      -0.0000000
 augmentation part      228.0000000 magnetization      -0.0000000

 Free energy of the ion-electron system (eV)
  ---------------------------------------------------
  alpha Z        PSCENC =       409.12303285
  Ewald energy   TEWEN  =     39459.95060245
  -1/2 Hartree   DENC   =    -54073.42356997
  -exchange  EXHF       =         0.00000000
  -V(xc)+E(xc)   XCENC  =       527.67498154
  PAW double counting   =     10909.34114156   -10745.31768692
  entropy T*S    EENTRO =        -0.02652326
  eigenvalues    EBANDS =       948.94856372
  atomic energy  EATOM  =     15376.83878752
  ---------------------------------------------------
  free energy    TOTEN  =      2813.10932949 eV

  energy without entropy =     2813.13585275  energy(sigma->0) =     2813.11817057


--------------------------------------------------------------------------------------------------------




----------------------------------------- Iteration    1(   2)  ---------------------------------------


     EDDAV:  cpu time    0.63: real time    0.63
       DOS:  cpu time    0.00: real time    0.00
    --------------------------------------------
      LOOP:  cpu time    0.63: real time    0.95

 eigenvalue-minimisations  :  1104
 total energy-change (2. order) :-0.2418696E+04  (-0.2338703E+04)
 number of electron     228.0000000 magnetization      -0.0000000
 augmentation part      228.0000000 magnetization      -0.0000000

 Free energy of the ion-electron system (eV)
  ---------------------------------------------------
  alpha Z        PSCENC =       409.12303285
  Ewald energy   TEWEN  =     39459.95060245
  -1/2 Hartree   DENC   =    -54073.42356997
  -exchange  EXHF       =         0.00000000
  -V(xc)+E(xc)   XCENC  =       527.67498154
  PAW double counting   =     10909.34114156   -10745.31768692
  entropy T*S    EENTRO =         0.02224186
  eigenvalues    EBANDS =     -1469.79655464
  atomic energy  EATOM  =     15376.83878752
  ---------------------------------------------------
  free energy    TOTEN  =       394.41297624 eV

  energy without entropy =      394.39073438  energy(sigma->0) =      394.40556229


--------------------------------------------------------------------------------------------------------




----------------------------------------- Iteration    1(   3)  ---------------------------------------


     EDDAV:  cpu time    0.85: real time    0.85
       DOS:  cpu time    0.00: real time    0.00
    --------------------------------------------
      LOOP:  cpu time    0.85: real time    1.20

 eigenvalue-minimisations  :  1624
 total energy-change (2. order) :-0.6603284E+03  (-0.6395009E+03)
 number of electron     228.0000000 magnetization      -0.0000000
 augmentation part      228.0000000 magnetization      -0.0000000

 Free energy of the ion-electron system (eV)
  ---------------------------------------------------
  alpha Z        PSCENC =       409.12303285
  Ewald energy   TEWEN  =     39459.95060245
  -1/2 Hartree   DENC   =    -54073.42356997
  -exchange  EXHF       =         0.00000000
  -V(xc)+E(xc)   XCENC  =       527.67498154
  PAW double counting   =     10909.34114156   -10745.31768692
  entropy T*S    EENTRO =         0.03493061
  eigenvalues    EBANDS =     -2130.13759736
  atomic energy  EATOM  =     15376.83878752
  ---------------------------------------------------
  free energy    TOTEN  =      -265.91537772 eV

  energy without entropy =     -265.95030833  energy(sigma->0) =     -265.92702126


--------------------------------------------------------------------------------------------------------




----------------------------------------- Iteration    1(   4)  ---------------------------------------


     EDDAV:  cpu time    0.90: real time    0.90
       DOS:  cpu time    0.00: real time    0.00
    --------------------------------------------
      LOOP:  cpu time    0.90: real time    1.17

 eigenvalue-minimisations  :  1696
 total energy-change (2. order) :-0.6614594E+02  (-0.6477569E+02)
 number of electron     228.0000000 magnetization      -0.0000000
 augmentation part      228.0000000 magnetization      -0.0000000

 Free energy of the ion-electron system (eV)
  ---------------------------------------------------
  alpha Z        PSCENC =       409.12303285
  Ewald energy   TEWEN  =     39459.95060245
  -1/2 Hartree   DENC   =    -54073.42356997
  -exchange  EXHF       =         0.00000000
  -V(xc)+E(xc)   XCENC  =       527.67498154
  PAW double counting   =     10909.34114156   -10745.31768692
  entropy T*S    EENTRO =         0.08273637
  eigenvalues    EBANDS =     -2196.33134422
  atomic energy  EATOM  =     15376.83878752
  ---------------------------------------------------
  free energy    TOTEN  =      -332.06131882 eV

  energy without entropy =     -332.14405520  energy(sigma->0) =     -332.08889761


--------------------------------------------------------------------------------------------------------




----------------------------------------- Iteration    1(   5)  ---------------------------------------


     EDDAV:  cpu time    0.87: real time    0.87
       DOS:  cpu time    0.00: real time    0.00
    CHARGE:  cpu time    0.03: real time    0.03
    MIXING:  cpu time    0.00: real time    0.00
    --------------------------------------------
      LOOP:  cpu time    0.90: real time    1.13

 eigenvalue-minimisations  :  1680
 total energy-change (2. order) :-0.2064323E+01  (-0.2035126E+01)
 number of electron     228.0000216 magnetization       0.0138473
 augmentation part       64.7621064 magnetization      -0.0582478

 Broyden mixing:
  rms(total) = 0.66303E+01    rms(broyden)= 0.66220E+01
  rms(prec ) = 0.74447E+01
  weight for this iteration     100.00

 Free energy of the ion-electron system (eV)
  ---------------------------------------------------
  alpha Z        PSCENC =       409.12303285
  Ewald energy   TEWEN  =     39459.95060245
  -1/2 Hartree   DENC   =    -54073.42356997
  -exchange  EXHF       =         0.00000000
  -V(xc)+E(xc)   XCENC  =       527.67498154
  PAW double counting   =     10909.34114156   -10745.31768692
  entropy T*S    EENTRO =         0.08877718
  eigenvalues    EBANDS =     -2198.40170780
  atomic energy  EATOM  =     15376.83878752
  ---------------------------------------------------
  free energy    TOTEN  =      -334.12564159 eV

  energy without entropy =     -334.21441877  energy(sigma->0) =     -334.15523399


--------------------------------------------------------------------------------------------------------




----------------------------------------- Iteration    1(   6)  ---------------------------------------


    POTLOK:  cpu time    0.04: real time    0.04
    SETDIJ:  cpu time    0.01: real time    0.01
     EDDAV:  cpu time    0.96: real time    0.96
       DOS:  cpu time    0.00: real time    0.00
    CHARGE:  cpu time    0.03: real time    0.03
    MIXING:  cpu time    0.00: real time    0.00
    --------------------------------------------
      LOOP:  cpu time    1.03: real time    1.66

 eigenvalue-minimisations  :  1888
 total energy-change (2. order) : 0.2641415E+02  (-0.1379522E+03)
 number of electron     228.0000189 magnetization      -0.1620080
 augmentation part       80.6685753 magnetization      -0.2327423

 Broyden mixing:
  rms(total) = 0.10445E+02    rms(broyden)= 0.10441E+02
  rms(prec ) = 0.11701E+02
  weight for this iteration     100.00

 eigenvalues of (default mixing * dielectric matrix)
  average eigenvalue GAMMA=   0.3654
  0.3654

 Free energy of the ion-electron system (eV)
  ---------------------------------------------------
  alpha Z        PSCENC =       409.12303285
  Ewald energy   TEWEN  =     39459.95060245
  -1/2 Hartree   DENC   =    -54275.16158453
  -exchange  EXHF       =         0.00000000
  -V(xc)+E(xc)   XCENC  =       556.19825629
  PAW double counting   =     11807.45297749   -11629.14991826
  entropy T*S    EENTRO =        -0.05465257
  eigenvalues    EBANDS =     -2012.90899566
  atomic energy  EATOM  =     15376.83878752
  ---------------------------------------------------
  free energy    TOTEN  =      -307.71149443 eV

  energy without entropy =     -307.65684185  energy(sigma->0) =     -307.69327690


--------------------------------------------------------------------------------------------------------




----------------------------------------- Iteration    1(   7)  ---------------------------------------


    POTLOK:  cpu time    0.03: real time    0.03
    SETDIJ:  cpu time    0.01: real time    0.01
     EDDAV:  cpu time    1.03: real time    1.03
       DOS:  cpu time    0.00: real time    0.00
    CHARGE:  cpu time    0.03: real time    0.03
    MIXING:  cpu time    0.00: real time    0.00
    --------------------------------------------
      LOOP:  cpu time    1.10: real time    1.56

 eigenvalue-minimisations  :  2040
 total energy-change (2. order) : 0.6092122E+02  (-0.1074481E+03)
 number of electron     228.0000205 magnetization      -0.1837935
 augmentation part       65.2219927 magnetization      -0.8938224

 Broyden mixing:
  rms(total) = 0.30427E+01    rms(broyden)= 0.30335E+01
  rms(prec ) = 0.34053E+01
  weight for this iteration     100.00

 eigenvalues of (default mixing * dielectric matrix)
  average eigenvalue GAMMA=   0.4880
  0.6852  0.2909

 Free energy of the ion-electron system (eV)
  ---------------------------------------------------
  alpha Z        PSCENC =       409.12303285
  Ewald energy   TEWEN  =     39459.95060245
  -1/2 Hartree   DENC   =    -54302.03543454
  -exchange  EXHF       =         0.00000000
  -V(xc)+E(xc)   XCENC  =       536.96775718
  PAW double counting   =     11866.38450634   -11731.11243765
  entropy T*S    EENTRO =         0.02494803
  eigenvalues    EBANDS =     -1862.93204122
  atomic energy  EATOM  =     15376.83878752
  ---------------------------------------------------
  free energy    TOTEN  =      -246.79027906 eV

  energy without entropy =     -246.81522709  energy(sigma->0) =     -246.79859507


--------------------------------------------------------------------------------------------------------




----------------------------------------- Iteration    1(   8)  ---------------------------------------


    POTLOK:  cpu time    0.03: real time    0.03
    SETDIJ:  cpu time    0.00: real time    0.01
     EDDAV:  cpu time    0.90: real time    0.90
       DOS:  cpu time    0.00: real time    0.00
    CHARGE:  cpu time    0.03: real time    0.03
    MIXING:  cpu time    0.00: real time    0.00
    --------------------------------------------
      LOOP:  cpu time    0.97: real time    1.21

 eigenvalue-minimisations  :  1760
 total energy-change (2. order) : 0.3557552E+01  (-0.8019099E+01)
 number of electron     228.0000204 magnetization      -0.2182194
 augmentation part       65.5003111 magnetization      -0.4848112

 Broyden mixing:
  rms(total) = 0.23804E+01    rms(broyden)= 0.23801E+01
  rms(prec ) = 0.26699E+01
  weight for this iteration     100.00

 eigenvalues of (default mixing * dielectric matrix)
  average eigenvalue GAMMA=   0.5362
  0.6221  0.6221  0.3644

 Free energy of the ion-electron system (eV)
  ---------------------------------------------------
  alpha Z        PSCENC =       409.12303285
  Ewald energy   TEWEN  =     39459.95060245
  -1/2 Hartree   DENC   =    -54303.19144084
  -exchange  EXHF       =         0.00000000
  -V(xc)+E(xc)   XCENC  =       539.45726447
  PAW double counting   =     12016.91943631   -11882.43678816
  entropy T*S    EENTRO =         0.05075685
  eigenvalues    EBANDS =     -1859.94437825
  atomic energy  EATOM  =     15376.83878752
  ---------------------------------------------------
  free energy    TOTEN  =      -243.23272682 eV

  energy without entropy =     -243.28348366  energy(sigma->0) =     -243.24964576


--------------------------------------------------------------------------------------------------------




----------------------------------------- Iteration    1(   9)  ---------------------------------------


    POTLOK:  cpu time    0.04: real time    0.04
    SETDIJ:  cpu time    0.01: real time    0.01
     EDDAV:  cpu time    1.04: real time    1.04
       DOS:  cpu time    0.00: real time    0.00
    CHARGE:  cpu time    0.03: real time    0.03
    MIXING:  cpu time    0.00: real time    0.00
    --------------------------------------------
      LOOP:  cpu time    1.11: real time    1.43

 eigenvalue-minimisations  :  2080
 total energy-change (2. order) : 0.4490145E+01  (-0.1234511E+01)
 number of electron     228.0000199 magnetization      -0.2082188
 augmentation part       66.1563787 magnetization      -0.3262233

 Broyden mixing:
  rms(total) = 0.14351E+01    rms(broyden)= 0.14347E+01
  rms(prec ) = 0.15911E+01
  weight for this iteration     100.00

 eigenvalues of (default mixing * dielectric matrix)
  average eigenvalue GAMMA=   0.6566
  0.8728  0.8728  0.3280  0.5530

 Free energy of the ion-electron system (eV)
  ---------------------------------------------------
  alpha Z        PSCENC =       409.12303285
  Ewald energy   TEWEN  =     39459.95060245
  -1/2 Hartree   DENC   =    -54324.42849448
  -exchange  EXHF       =         0.00000000
  -V(xc)+E(xc)   XCENC  =       542.82322924
  PAW double counting   =     12196.23695367   -12063.55325027
  entropy T*S    EENTRO =         0.03993569
  eigenvalues    EBANDS =     -1835.77337868
  atomic energy  EATOM  =     15376.83878752
  ---------------------------------------------------
  free energy    TOTEN  =      -238.74258201 eV

  energy without entropy =     -238.78251770  energy(sigma->0) =     -238.75589391


--------------------------------------------------------------------------------------------------------




----------------------------------------- Iteration    1(  10)  ---------------------------------------


    POTLOK:  cpu time    0.04: real time    0.04
    SETDIJ:  cpu time    0.01: real time    0.01
     EDDAV:  cpu time    1.03: real time    1.03
       DOS:  cpu time    0.00: real time    0.00
    CHARGE:  cpu time    0.03: real time    0.03
    MIXING:  cpu time    0.00: real time    0.00
    --------------------------------------------
      LOOP:  cpu time    1.10: real time    1.74

 eigenvalue-minimisations  :  2048
 total energy-change (2. order) :-0.2140437E+00  (-0.2481085E+00)
 number of electron     228.0000200 magnetization      -0.1756002
 augmentation part       66.5250859 magnetization      -0.1740045

 Broyden mixing:
  rms(total) = 0.11121E+01    rms(broyden)= 0.11119E+01
  rms(prec ) = 0.12427E+01
  weight for this iteration     100.00

 eigenvalues of (default mixing * dielectric matrix)
  average eigenvalue GAMMA=   0.8768
  1.4564  1.4564  0.3382  0.5665  0.5665

 Free energy of the ion-electron system (eV)
  ---------------------------------------------------
  alpha Z        PSCENC =       409.12303285
  Ewald energy   TEWEN  =     39459.95060245
  -1/2 Hartree   DENC   =    -54309.62928359
  -exchange  EXHF       =         0.00000000
  -V(xc)+E(xc)   XCENC  =       544.47142724
  PAW double counting   =     12264.46288995   -12129.76582484
  entropy T*S    EENTRO =         0.03348810
  eigenvalues    EBANDS =     -1854.44174543
  atomic energy  EATOM  =     15376.83878752
  ---------------------------------------------------
  free energy    TOTEN  =      -238.95662575 eV

  energy without entropy =     -238.99011385  energy(sigma->0) =     -238.96778845


--------------------------------------------------------------------------------------------------------




----------------------------------------- Iteration    1(  11)  ---------------------------------------


    POTLOK:  cpu time    0.03: real time    0.03
    SETDIJ:  cpu time    0.01: real time    0.01
     EDDAV:  cpu time    1.04: real time    1.04
       DOS:  cpu time    0.00: real time    0.00
    CHARGE:  cpu time    0.03: real time    0.03
    MIXING:  cpu time    0.00: real time    0.00
    --------------------------------------------
      LOOP:  cpu time    1.11: real time    1.68

 eigenvalue-minimisations  :  2072
 total energy-change (2. order) :-0.3548078E+00  (-0.1073343E+01)
 number of electron     228.0000190 magnetization      -0.1712226
 augmentation part       67.8210542 magnetization       0.5987946

 Broyden mixing:
  rms(total) = 0.10202E+01    rms(broyden)= 0.10150E+01
  rms(prec ) = 0.10754E+01
  weight for this iteration     100.00

 eigenvalues of (default mixing * dielectric matrix)
  average eigenvalue GAMMA=   0.7430
  1.4744  1.4744  0.3382  0.5669  0.5669  0.0369

 Free energy of the ion-electron system (eV)
  ---------------------------------------------------
  alpha Z        PSCENC =       409.12303285
  Ewald energy   TEWEN  =     39459.95060245
  -1/2 Hartree   DENC   =    -54299.39474595
  -exchange  EXHF       =         0.00000000
  -V(xc)+E(xc)   XCENC  =       548.75662933
  PAW double counting   =     12436.72351026   -12300.92928287
  entropy T*S    EENTRO =        -0.04176999
  eigenvalues    EBANDS =     -1870.33819717
  atomic energy  EATOM  =     15376.83878752
  ---------------------------------------------------
  free energy    TOTEN  =      -239.31143357 eV

  energy without entropy =     -239.26966358  energy(sigma->0) =     -239.29751024


--------------------------------------------------------------------------------------------------------




----------------------------------------- Iteration    1(  12)  ---------------------------------------


    POTLOK:  cpu time    0.04: real time    0.04
    SETDIJ:  cpu time    0.00: real time    0.01
     EDDAV:  cpu time    0.77: real time    0.77
       DOS:  cpu time    0.00: real time    0.00
    CHARGE:  cpu time    0.03: real time    0.03
    MIXING:  cpu time    0.00: real time    0.00
    --------------------------------------------
      LOOP:  cpu time    0.84: real time    1.18

 eigenvalue-minimisations  :  1432
 total energy-change (2. order) :-0.2150777E+00  (-0.9875818E-01)
 number of electron     228.0000189 magnetization      -0.1689527
 augmentation part       67.8158903 magnetization       0.6023852

 Broyden mixing:
  rms(total) = 0.89775E+00    rms(broyden)= 0.89748E+00
  rms(prec ) = 0.94898E+00
  weight for this iteration     100.00

 eigenvalues of (default mixing * dielectric matrix)
  average eigenvalue GAMMA=   0.7400
  1.4901  1.4901  0.5735  0.5735  0.3386  0.3570  0.3570

 Free energy of the ion-electron system (eV)
  ---------------------------------------------------
  alpha Z        PSCENC =       409.12303285
  Ewald energy   TEWEN  =     39459.95060245
  -1/2 Hartree   DENC   =    -54301.30560498
  -exchange  EXHF       =         0.00000000
  -V(xc)+E(xc)   XCENC  =       549.10662751
  PAW double counting   =     12442.45934113   -12306.66265359
  entropy T*S    EENTRO =        -0.04480776
  eigenvalues    EBANDS =     -1868.99183643
  atomic energy  EATOM  =     15376.83878752
  ---------------------------------------------------
  free energy    TOTEN  =      -239.52651132 eV

  energy without entropy =     -239.48170356  energy(sigma->0) =     -239.51157540


--------------------------------------------------------------------------------------------------------




----------------------------------------- Iteration    1(  13)  ---------------------------------------


    POTLOK:  cpu time    0.03: real time    0.03
    SETDIJ:  cpu time    0.00: real time    0.01
     EDDAV:  cpu time    1.02: real time    1.02
       DOS:  cpu time    0.00: real time    0.00
    CHARGE:  cpu time    0.03: real time    0.03
    MIXING:  cpu time    0.00: real time    0.00
    --------------------------------------------
      LOOP:  cpu time    1.09: real time    1.57

 eigenvalue-minimisations  :  2016
 total energy-change (2. order) :-0.2513554E+00  (-0.7987933E-01)
 number of electron     228.0000190 magnetization      -0.1610088
 augmentation part       67.7841758 magnetization       0.5790856

 Broyden mixing:
  rms(total) = 0.85198E+00    rms(broyden)= 0.85180E+00
  rms(prec ) = 0.95822E+00
  weight for this iteration     100.00

 eigenvalues of (default mixing * dielectric matrix)
  average eigenvalue GAMMA=   0.7091
  1.5389  1.5389  0.4960  0.4960  0.5618  0.5618  0.3391  0.1399

 Free energy of the ion-electron system (eV)
  ---------------------------------------------------
  alpha Z        PSCENC =       409.12303285
  Ewald energy   TEWEN  =     39459.95060245
  -1/2 Hartree   DENC   =    -54307.98240236
  -exchange  EXHF       =         0.00000000
  -V(xc)+E(xc)   XCENC  =       549.47161165
  PAW double counting   =     12454.31099552   -12318.85922396
  entropy T*S    EENTRO =        -0.02542373
  eigenvalues    EBANDS =     -1862.60584667
  atomic energy  EATOM  =     15376.83878752
  ---------------------------------------------------
  free energy    TOTEN  =      -239.77786674 eV

  energy without entropy =     -239.75244301  energy(sigma->0) =     -239.76939216


--------------------------------------------------------------------------------------------------------




----------------------------------------- Iteration    1(  14)  ---------------------------------------


    POTLOK:  cpu time    0.04: real time    0.04
    SETDIJ:  cpu time    0.01: real time    0.01
     EDDAV:  cpu time    0.95: real time    0.95
       DOS:  cpu time    0.00: real time    0.00
    CHARGE:  cpu time    0.03: real time    0.03
    MIXING:  cpu time    0.00: real time    0.00
    --------------------------------------------
      LOOP:  cpu time    1.02: real time    1.37

 eigenvalue-minimisations  :  1856
 total energy-change (2. order) :-0.1216994E+00  (-0.1221991E+00)
 number of electron     228.0000190 magnetization      -0.1443713
 augmentation part       67.7755244 magnetization       0.6003646

 Broyden mixing:
  rms(total) = 0.69604E+00    rms(broyden)= 0.69574E+00
  rms(prec ) = 0.73982E+00
  weight for this iteration     100.00

 eigenvalues of (default mixing * dielectric matrix)
  average eigenvalue GAMMA=   0.7433
  1.6512  1.6512  0.7700  0.7700  0.5489  0.5489  0.3389  0.2629  0.1477

 Free energy of the ion-electron system (eV)
  ---------------------------------------------------
  alpha Z        PSCENC =       409.12303285
  Ewald energy   TEWEN  =     39459.95060245
  -1/2 Hartree   DENC   =    -54313.87837028
  -exchange  EXHF       =         0.00000000
  -V(xc)+E(xc)   XCENC  =       549.99942251
  PAW double counting   =     12469.81800375   -12334.62173608
  entropy T*S    EENTRO =        -0.04248049
  eigenvalues    EBANDS =     -1857.08682833
  atomic energy  EATOM  =     15376.83878752
  ---------------------------------------------------
  free energy    TOTEN  =      -239.89956612 eV

  energy without entropy =     -239.85708563  energy(sigma->0) =     -239.88540595


--------------------------------------------------------------------------------------------------------




----------------------------------------- Iteration    1(  15)  ---------------------------------------


    POTLOK:  cpu time    0.04: real time    0.04
    SETDIJ:  cpu time    0.01: real time    0.01
     EDDAV:  cpu time    0.97: real time    0.97
       DOS:  cpu time    0.00: real time    0.00
    CHARGE:  cpu time    0.03: real time    0.03
    MIXING:  cpu time    0.00: real time    0.00
    --------------------------------------------
      LOOP:  cpu time    1.04: real time    1.39

 eigenvalue-minimisations  :  1912
 total energy-change (2. order) :-0.2226411E+00  (-0.5048309E-01)
 number of electron     228.0000189 magnetization      -0.1174112
 augmentation part       67.8200580 magnetization       0.6614013

 Broyden mixing:
  rms(total) = 0.55822E+00    rms(broyden)= 0.55810E+00
  rms(prec ) = 0.59271E+00
  weight for this iteration     100.00

 eigenvalues of (default mixing * dielectric matrix)
  average eigenvalue GAMMA=   0.7750
  1.7146  1.7146  1.0749  1.0749  0.5576  0.4881  0.3388  0.3227  0.3227  0.1411

 Free energy of the ion-electron system (eV)
  ---------------------------------------------------
  alpha Z        PSCENC =       409.12303285
  Ewald energy   TEWEN  =     39459.95060245
  -1/2 Hartree   DENC   =    -54323.69827163
  -exchange  EXHF       =         0.00000000
  -V(xc)+E(xc)   XCENC  =       551.06026915
  PAW double counting   =     12503.33674978   -12368.78419532
  entropy T*S    EENTRO =        -0.03758520
  eigenvalues    EBANDS =     -1847.91159679
  atomic energy  EATOM  =     15376.83878752
  ---------------------------------------------------
  free energy    TOTEN  =      -240.12220719 eV

  energy without entropy =     -240.08462199  energy(sigma->0) =     -240.10967879


--------------------------------------------------------------------------------------------------------




----------------------------------------- Iteration    1(  16)  ---------------------------------------


    POTLOK:  cpu time    0.03: real time    0.03
    SETDIJ:  cpu time    0.01: real time    0.01
     EDDAV:  cpu time    0.98: real time    0.98
       DOS:  cpu time    0.00: real time    0.00
    CHARGE:  cpu time    0.03: real time    0.03
    MIXING:  cpu time    0.00: real time    0.00
    --------------------------------------------
      LOOP:  cpu time    1.05: real time    1.91

 eigenvalue-minimisations  :  1896
 total energy-change (2. order) :-0.1667631E+00  (-0.3389260E-01)
 number of electron     228.0000189 magnetization      -0.0925244
 augmentation part       67.8549376 magnetization       0.7239061

 Broyden mixing:
  rms(total) = 0.42074E+00    rms(broyden)= 0.42066E+00
  rms(prec ) = 0.45670E+00
  weight for this iteration     100.00

 eigenvalues of (default mixing * dielectric matrix)
  average eigenvalue GAMMA=   0.7932
  1.7889  1.7889  1.2371  1.2371  0.5300  0.5300  0.4183  0.4183  0.3381  0.2971
  0.1410

 Free energy of the ion-electron system (eV)
  ---------------------------------------------------
  alpha Z        PSCENC =       409.12303285
  Ewald energy   TEWEN  =     39459.95060245
  -1/2 Hartree   DENC   =    -54339.40711812
  -exchange  EXHF       =         0.00000000
  -V(xc)+E(xc)   XCENC  =       552.35567894
  PAW double counting   =     12544.14592717   -12410.29126603
  entropy T*S    EENTRO =        -0.02492567
  eigenvalues    EBANDS =     -1832.97968942
  atomic energy  EATOM  =     15376.83878752
  ---------------------------------------------------
  free energy    TOTEN  =      -240.28897031 eV

  energy without entropy =     -240.26404464  energy(sigma->0) =     -240.28066176


--------------------------------------------------------------------------------------------------------




----------------------------------------- Iteration    1(  17)  ---------------------------------------


    POTLOK:  cpu time    0.03: real time    0.04
    SETDIJ:  cpu time    0.01: real time    0.01
     EDDAV:  cpu time    0.94: real time    0.94
       DOS:  cpu time    0.00: real time    0.00
    CHARGE:  cpu time    0.03: real time    0.03
    MIXING:  cpu time    0.00: real time    0.00
    --------------------------------------------
      LOOP:  cpu time    1.01: real time    1.40

 eigenvalue-minimisations  :  1832
 total energy-change (2. order) :-0.7609034E-01  (-0.2777359E-01)
 number of electron     228.0000189 magnetization      -0.0692560
 augmentation part       67.8678767 magnetization       0.7591023

 Broyden mixing:
  rms(total) = 0.28267E+00    rms(broyden)= 0.28257E+00
  rms(prec ) = 0.31179E+00
  weight for this iteration     100.00

 eigenvalues of (default mixing * dielectric matrix)
  average eigenvalue GAMMA=   0.8231
  1.8506  1.8506  1.4540  1.4540  0.6247  0.6247  0.4617  0.4617  0.3281  0.3206
  0.3061  0.1411

 Free energy of the ion-electron system (eV)
  ---------------------------------------------------
  alpha Z        PSCENC =       409.12303285
  Ewald energy   TEWEN  =     39459.95060245
  -1/2 Hartree   DENC   =    -54357.49598437
  -exchange  EXHF       =         0.00000000
  -V(xc)+E(xc)   XCENC  =       553.39791985
  PAW double counting   =     12580.23872817   -12447.17582064
  entropy T*S    EENTRO =        -0.02522496
  eigenvalues    EBANDS =     -1815.21710151
  atomic energy  EATOM  =     15376.83878752
  ---------------------------------------------------
  free energy    TOTEN  =      -240.36506065 eV

  energy without entropy =     -240.33983569  energy(sigma->0) =     -240.35665233


--------------------------------------------------------------------------------------------------------




----------------------------------------- Iteration    1(  18)  ---------------------------------------


    POTLOK:  cpu time    0.03: real time    0.03
    SETDIJ:  cpu time    0.01: real time    0.01
     EDDAV:  cpu time    0.88: real time    0.88
       DOS:  cpu time    0.00: real time    0.00
    CHARGE:  cpu time    0.03: real time    0.03
    MIXING:  cpu time    0.00: real time    0.00
    --------------------------------------------
      LOOP:  cpu time    0.95: real time    1.42

 eigenvalue-minimisations  :  1696
 total energy-change (2. order) :-0.2885221E-01  (-0.1948941E-01)
 number of electron     228.0000189 magnetization      -0.0572575
 augmentation part       67.8326244 magnetization       0.7384312

 Broyden mixing:
  rms(total) = 0.15151E+00    rms(broyden)= 0.15143E+00
  rms(prec ) = 0.17013E+00
  weight for this iteration     100.00

 eigenvalues of (default mixing * dielectric matrix)
  average eigenvalue GAMMA=   0.8342
  1.8699  1.8699  1.6054  1.6054  0.6838  0.6838  0.4883  0.4503  0.4503  0.3374
  0.3822  0.2763  0.1411

 Free energy of the ion-electron system (eV)
  ---------------------------------------------------
  alpha Z        PSCENC =       409.12303285
  Ewald energy   TEWEN  =     39459.95060245
  -1/2 Hartree   DENC   =    -54372.36067344
  -exchange  EXHF       =         0.00000000
  -V(xc)+E(xc)   XCENC  =       553.99347590
  PAW double counting   =     12603.09856563   -12470.74511082
  entropy T*S    EENTRO =        -0.03053339
  eigenvalues    EBANDS =     -1800.26205955
  atomic energy  EATOM  =     15376.83878752
  ---------------------------------------------------
  free energy    TOTEN  =      -240.39391286 eV

  energy without entropy =     -240.36337947  energy(sigma->0) =     -240.38373506


--------------------------------------------------------------------------------------------------------




----------------------------------------- Iteration    1(  19)  ---------------------------------------


    POTLOK:  cpu time    0.04: real time    0.04
    SETDIJ:  cpu time    0.01: real time    0.01
     EDDAV:  cpu time    0.93: real time    0.94
       DOS:  cpu time    0.00: real time    0.00
    CHARGE:  cpu time    0.03: real time    0.03
    MIXING:  cpu time    0.00: real time    0.00
    --------------------------------------------
      LOOP:  cpu time    1.01: real time    1.29

 eigenvalue-minimisations  :  1824
 total energy-change (2. order) :-0.1017268E-01  (-0.7535268E-02)
 number of electron     228.0000189 magnetization      -0.0487624
 augmentation part       67.7798399 magnetization       0.7020396

 Broyden mixing:
  rms(total) = 0.75469E-01    rms(broyden)= 0.75418E-01
  rms(prec ) = 0.84878E-01
  weight for this iteration     100.00

 eigenvalues of (default mixing * dielectric matrix)
  average eigenvalue GAMMA=   0.8354
  1.9240  1.9240  1.6495  1.6495  0.7424  0.7424  0.5522  0.5522  0.4253  0.4253
  0.3440  0.3440  0.2792  0.1411

 Free energy of the ion-electron system (eV)
  ---------------------------------------------------
  alpha Z        PSCENC =       409.12303285
  Ewald energy   TEWEN  =     39459.95060245
  -1/2 Hartree   DENC   =    -54378.51617965
  -exchange  EXHF       =         0.00000000
  -V(xc)+E(xc)   XCENC  =       553.93971704
  PAW double counting   =     12605.83752733   -12473.72967807
  entropy T*S    EENTRO =        -0.03622966
  eigenvalues    EBANDS =     -1793.81166534
  atomic energy  EATOM  =     15376.83878752
  ---------------------------------------------------
  free energy    TOTEN  =      -240.40408554 eV

  energy without entropy =     -240.36785588  energy(sigma->0) =     -240.39200899


--------------------------------------------------------------------------------------------------------




----------------------------------------- Iteration    1(  20)  ---------------------------------------


    POTLOK:  cpu time    0.04: real time    0.04
    SETDIJ:  cpu time    0.01: real time    0.01
     EDDAV:  cpu time    0.93: real time    0.93
       DOS:  cpu time    0.00: real time    0.00
    CHARGE:  cpu time    0.03: real time    0.03
    MIXING:  cpu time    0.00: real time    0.00
    --------------------------------------------
      LOOP:  cpu time    1.00: real time    1.32

 eigenvalue-minimisations  :  1816
 total energy-change (2. order) :-0.1196648E-01  (-0.2206696E-02)
 number of electron     228.0000189 magnetization      -0.0381942
 augmentation part       67.7565435 magnetization       0.6997338

 Broyden mixing:
  rms(total) = 0.48777E-01    rms(broyden)= 0.48756E-01
  rms(prec ) = 0.57006E-01
  weight for this iteration     100.00

 eigenvalues of (default mixing * dielectric matrix)
  average eigenvalue GAMMA=   0.8656
  1.8654  1.8654  1.8180  1.8180  1.0360  0.7924  0.7924  0.4890  0.4890  0.4514
  0.4514  0.3422  0.3520  0.2798  0.1411

 Free energy of the ion-electron system (eV)
  ---------------------------------------------------
  alpha Z        PSCENC =       409.12303285
  Ewald energy   TEWEN  =     39459.95060245
  -1/2 Hartree   DENC   =    -54384.11264382
  -exchange  EXHF       =         0.00000000
  -V(xc)+E(xc)   XCENC  =       553.89044651
  PAW double counting   =     12609.97842060   -12478.05197506
  entropy T*S    EENTRO =        -0.03563667
  eigenvalues    EBANDS =     -1787.99708640
  atomic energy  EATOM  =     15376.83878752
  ---------------------------------------------------
  free energy    TOTEN  =      -240.41605202 eV

  energy without entropy =     -240.38041536  energy(sigma->0) =     -240.40417313


--------------------------------------------------------------------------------------------------------




----------------------------------------- Iteration    1(  21)  ---------------------------------------


    POTLOK:  cpu time    0.04: real time    0.04
    SETDIJ:  cpu time    0.01: real time    0.01
     EDDAV:  cpu time    0.95: real time    0.95
       DOS:  cpu time    0.00: real time    0.00
    CHARGE:  cpu time    0.03: real time    0.03
    MIXING:  cpu time    0.00: real time    0.00
    --------------------------------------------
      LOOP:  cpu time    1.03: real time    1.37

 eigenvalue-minimisations  :  1864
 total energy-change (2. order) :-0.6579452E-02  (-0.1237163E-02)
 number of electron     228.0000189 magnetization      -0.0320135
 augmentation part       67.7282683 magnetization       0.6919853

 Broyden mixing:
  rms(total) = 0.22744E-01    rms(broyden)= 0.22692E-01
  rms(prec ) = 0.27157E-01
  weight for this iteration     100.00

 eigenvalues of (default mixing * dielectric matrix)
  average eigenvalue GAMMA=   0.8801
  1.8060  1.8060  1.9914  1.7449  1.3890  0.8995  0.8995  0.5716  0.4911  0.4911
  0.4395  0.4395  0.3445  0.3472  0.2798  0.1411

 Free energy of the ion-electron system (eV)
  ---------------------------------------------------
  alpha Z        PSCENC =       409.12303285
  Ewald energy   TEWEN  =     39459.95060245
  -1/2 Hartree   DENC   =    -54391.13616245
  -exchange  EXHF       =         0.00000000
  -V(xc)+E(xc)   XCENC  =       553.84228125
  PAW double counting   =     12613.19721558   -12481.39512020
  entropy T*S    EENTRO =        -0.03794797
  eigenvalues    EBANDS =     -1780.80532050
  atomic energy  EATOM  =     15376.83878752
  ---------------------------------------------------
  free energy    TOTEN  =      -240.42263147 eV

  energy without entropy =     -240.38468350  energy(sigma->0) =     -240.40998215


--------------------------------------------------------------------------------------------------------




----------------------------------------- Iteration    1(  22)  ---------------------------------------


    POTLOK:  cpu time    0.04: real time    0.04
    SETDIJ:  cpu time    0.00: real time    0.01
     EDDAV:  cpu time    0.94: real time    0.94
       DOS:  cpu time    0.00: real time    0.00
    CHARGE:  cpu time    0.03: real time    0.03
    MIXING:  cpu time    0.00: real time    0.00
    --------------------------------------------
      LOOP:  cpu time    1.01: real time    1.32

 eigenvalue-minimisations  :  1824
 total energy-change (2. order) :-0.5380464E-03  (-0.6204165E-03)
 number of electron     228.0000189 magnetization      -0.0298428
 augmentation part       67.7235903 magnetization       0.6879438

 Broyden mixing:
  rms(total) = 0.26815E-01    rms(broyden)= 0.26798E-01
  rms(prec ) = 0.30428E-01
  weight for this iteration     100.00

 eigenvalues of (default mixing * dielectric matrix)
  average eigenvalue GAMMA=   0.8870
  2.3563  1.8377  1.8377  1.5551  1.5551  0.9314  0.9314  0.6383  0.4994  0.4994
  0.4914  0.4179  0.4179  0.3448  0.3448  0.2798  0.1411

 Free energy of the ion-electron system (eV)
  ---------------------------------------------------
  alpha Z        PSCENC =       409.12303285
  Ewald energy   TEWEN  =     39459.95060245
  -1/2 Hartree   DENC   =    -54394.98053461
  -exchange  EXHF       =         0.00000000
  -V(xc)+E(xc)   XCENC  =       553.88662054
  PAW double counting   =     12614.82616146   -12482.99386602
  entropy T*S    EENTRO =        -0.03859121
  eigenvalues    EBANDS =     -1777.03538249
  atomic energy  EATOM  =     15376.83878752
  ---------------------------------------------------
  free energy    TOTEN  =      -240.42316952 eV

  energy without entropy =     -240.38457831  energy(sigma->0) =     -240.41030578


--------------------------------------------------------------------------------------------------------




----------------------------------------- Iteration    1(  23)  ---------------------------------------


    POTLOK:  cpu time    0.03: real time    0.04
    SETDIJ:  cpu time    0.01: real time    0.01
     EDDAV:  cpu time    0.76: real time    0.76
       DOS:  cpu time    0.00: real time    0.00
    CHARGE:  cpu time    0.03: real time    0.03
    MIXING:  cpu time    0.00: real time    0.00
    --------------------------------------------
      LOOP:  cpu time    0.84: real time    1.23

 eigenvalue-minimisations  :  1408
 total energy-change (2. order) : 0.5780023E-04  (-0.2416794E-03)
 number of electron     228.0000189 magnetization      -0.0286019
 augmentation part       67.7269193 magnetization       0.6882201

 Broyden mixing:
  rms(total) = 0.17920E-01    rms(broyden)= 0.17906E-01
  rms(prec ) = 0.21298E-01
  weight for this iteration     100.00

 eigenvalues of (default mixing * dielectric matrix)
  average eigenvalue GAMMA=   0.8927
  2.3766  1.8298  1.8298  1.7280  1.7280  0.9599  0.9599  0.7776  0.5623  0.5092
  0.5092  0.4303  0.4303  0.1411  0.2800  0.3439  0.3439  0.3287

 Free energy of the ion-electron system (eV)
  ---------------------------------------------------
  alpha Z        PSCENC =       409.12303285
  Ewald energy   TEWEN  =     39459.95060245
  -1/2 Hartree   DENC   =    -54396.96951456
  -exchange  EXHF       =         0.00000000
  -V(xc)+E(xc)   XCENC  =       553.87701318
  PAW double counting   =     12614.81960842   -12482.95836242
  entropy T*S    EENTRO =        -0.03777329
  eigenvalues    EBANDS =     -1775.06650586
  atomic energy  EATOM  =     15376.83878752
  ---------------------------------------------------
  free energy    TOTEN  =      -240.42311172 eV

  energy without entropy =     -240.38533843  energy(sigma->0) =     -240.41052062


--------------------------------------------------------------------------------------------------------




----------------------------------------- Iteration    1(  24)  ---------------------------------------


    POTLOK:  cpu time    0.04: real time    0.04
    SETDIJ:  cpu time    0.01: real time    0.01
     EDDAV:  cpu time    0.81: real time    0.82
       DOS:  cpu time    0.00: real time    0.00
    CHARGE:  cpu time    0.03: real time    0.03
    MIXING:  cpu time    0.00: real time    0.00
    --------------------------------------------
      LOOP:  cpu time    0.89: real time    1.24

 eigenvalue-minimisations  :  1528
 total energy-change (2. order) :-0.6154524E-04  (-0.1507805E-03)
 number of electron     228.0000189 magnetization      -0.0273950
 augmentation part       67.7309527 magnetization       0.6919017

 Broyden mixing:
  rms(total) = 0.75882E-02    rms(broyden)= 0.75734E-02
  rms(prec ) = 0.11066E-01
  weight for this iteration     100.00

 eigenvalues of (default mixing * dielectric matrix)
  average eigenvalue GAMMA=   0.8955
  2.2984  2.2984  1.8120  1.8120  1.2842  1.2842  1.0434  0.7981  0.5891  0.5171
  0.5171  0.1411  0.4280  0.4280  0.4611  0.2798  0.3509  0.3420  0.3300

 Free energy of the ion-electron system (eV)
  ---------------------------------------------------
  alpha Z        PSCENC =       409.12303285
  Ewald energy   TEWEN  =     39459.95060245
  -1/2 Hartree   DENC   =    -54398.75557847
  -exchange  EXHF       =         0.00000000
  -V(xc)+E(xc)   XCENC  =       553.87268817
  PAW double counting   =     12614.79062572   -12482.91902222
  entropy T*S    EENTRO =        -0.03703118
  eigenvalues    EBANDS =     -1773.28727810
  atomic energy  EATOM  =     15376.83878752
  ---------------------------------------------------
  free energy    TOTEN  =      -240.42317327 eV

  energy without entropy =     -240.38614208  energy(sigma->0) =     -240.41082954


--------------------------------------------------------------------------------------------------------




----------------------------------------- Iteration    1(  25)  ---------------------------------------


    POTLOK:  cpu time    0.04: real time    0.04
    SETDIJ:  cpu time    0.01: real time    0.01
     EDDAV:  cpu time    0.57: real time    0.57
       DOS:  cpu time    0.00: real time    0.00
    CHARGE:  cpu time    0.03: real time    0.03
    MIXING:  cpu time    0.00: real time    0.00
    --------------------------------------------
      LOOP:  cpu time    0.65: real time    1.13

 eigenvalue-minimisations  :   936
 total energy-change (2. order) :-0.1247067E-03  (-0.3452849E-04)
 number of electron     228.0000189 magnetization      -0.0253032
 augmentation part       67.7304993 magnetization       0.6958558

 Broyden mixing:
  rms(total) = 0.40991E-02    rms(broyden)= 0.40935E-02
  rms(prec ) = 0.77272E-02
  weight for this iteration     100.00

 eigenvalues of (default mixing * dielectric matrix)
  average eigenvalue GAMMA=   0.9023
  2.3987  2.3987  1.8612  1.8612  1.3483  1.3483  0.9560  0.7545  0.7545  0.1411
  0.5266  0.5266  0.5185  0.4904  0.4294  0.4294  0.2798  0.3457  0.3457  0.3323

 Free energy of the ion-electron system (eV)
  ---------------------------------------------------
  alpha Z        PSCENC =       409.12303285
  Ewald energy   TEWEN  =     39459.95060245
  -1/2 Hartree   DENC   =    -54400.40129917
  -exchange  EXHF       =         0.00000000
  -V(xc)+E(xc)   XCENC  =       553.86527578
  PAW double counting   =     12614.30234260   -12482.41759897
  entropy T*S    EENTRO =        -0.03699003
  eigenvalues    EBANDS =     -1771.64745099
  atomic energy  EATOM  =     15376.83878752
  ---------------------------------------------------
  free energy    TOTEN  =      -240.42329797 eV

  energy without entropy =     -240.38630794  energy(sigma->0) =     -240.41096796


--------------------------------------------------------------------------------------------------------




----------------------------------------- Iteration    1(  26)  ---------------------------------------


    POTLOK:  cpu time    0.04: real time    0.04
    SETDIJ:  cpu time    0.01: real time    0.01
     EDDAV:  cpu time    0.54: real time    0.54
       DOS:  cpu time    0.00: real time    0.00
    CHARGE:  cpu time    0.03: real time    0.03
    MIXING:  cpu time    0.00: real time    0.00
    --------------------------------------------
      LOOP:  cpu time    0.61: real time    0.97

 eigenvalue-minimisations  :   848
 total energy-change (2. order) :-0.1449718E-03  (-0.2068530E-04)
 number of electron     228.0000189 magnetization      -0.0231789
 augmentation part       67.7286130 magnetization       0.6976597

 Broyden mixing:
  rms(total) = 0.42472E-02    rms(broyden)= 0.42441E-02
  rms(prec ) = 0.68861E-02
  weight for this iteration     100.00

 eigenvalues of (default mixing * dielectric matrix)
  average eigenvalue GAMMA=   0.9128
  2.4667  2.4667  1.8778  1.8778  1.4496  1.4496  0.9866  0.8280  0.8280  0.1411
  0.5281  0.5281  0.5409  0.5409  0.4957  0.4313  0.4313  0.2799  0.3453  0.3453
  0.3300

 Free energy of the ion-electron system (eV)
  ---------------------------------------------------
  alpha Z        PSCENC =       409.12303285
  Ewald energy   TEWEN  =     39459.95060245
  -1/2 Hartree   DENC   =    -54402.56196423
  -exchange  EXHF       =         0.00000000
  -V(xc)+E(xc)   XCENC  =       553.87573473
  PAW double counting   =     12614.16989105   -12482.27612064
  entropy T*S    EENTRO =        -0.03718331
  eigenvalues    EBANDS =     -1769.50622336
  atomic energy  EATOM  =     15376.83878752
  ---------------------------------------------------
  free energy    TOTEN  =      -240.42344294 eV

  energy without entropy =     -240.38625964  energy(sigma->0) =     -240.41104851


--------------------------------------------------------------------------------------------------------




----------------------------------------- Iteration    1(  27)  ---------------------------------------


    POTLOK:  cpu time    0.03: real time    0.04
    SETDIJ:  cpu time    0.01: real time    0.01
     EDDAV:  cpu time    0.51: real time    0.51
       DOS:  cpu time    0.00: real time    0.00
    CHARGE:  cpu time    0.03: real time    0.03
    MIXING:  cpu time    0.00: real time    0.00
    --------------------------------------------
      LOOP:  cpu time    0.58: real time    0.91

 eigenvalue-minimisations  :   768
 total energy-change (2. order) :-0.4179881E-03  (-0.1488034E-04)
 number of electron     228.0000189 magnetization      -0.0210864
 augmentation part       67.7300955 magnetization       0.6986263

 Broyden mixing:
  rms(total) = 0.37056E-02    rms(broyden)= 0.37037E-02
  rms(prec ) = 0.55158E-02
  weight for this iteration     100.00

 eigenvalues of (default mixing * dielectric matrix)
  average eigenvalue GAMMA=   0.9253
  2.5778  2.5778  1.8467  1.8467  1.5786  1.5786  0.9963  0.9963  0.7314  0.7314
  0.1411  0.5538  0.5538  0.4944  0.4944  0.4949  0.4302  0.4302  0.2799  0.3454
  0.3454  0.3315

 Free energy of the ion-electron system (eV)
  ---------------------------------------------------
  alpha Z        PSCENC =       409.12303285
  Ewald energy   TEWEN  =     39459.95060245
  -1/2 Hartree   DENC   =    -54405.24084296
  -exchange  EXHF       =         0.00000000
  -V(xc)+E(xc)   XCENC  =       553.87665431
  PAW double counting   =     12613.64992374   -12481.74029570
  entropy T*S    EENTRO =        -0.03729700
  eigenvalues    EBANDS =     -1766.84442613
  atomic energy  EATOM  =     15376.83878752
  ---------------------------------------------------
  free energy    TOTEN  =      -240.42386093 eV

  energy without entropy =     -240.38656393  energy(sigma->0) =     -240.41142860


--------------------------------------------------------------------------------------------------------




----------------------------------------- Iteration    1(  28)  ---------------------------------------


    POTLOK:  cpu time    0.03: real time    0.04
    SETDIJ:  cpu time    0.01: real time    0.01
     EDDAV:  cpu time    0.58: real time    0.58
       DOS:  cpu time    0.00: real time    0.00
    CHARGE:  cpu time    0.03: real time    0.03
    MIXING:  cpu time    0.00: real time    0.00
    --------------------------------------------
      LOOP:  cpu time    0.65: real time    1.02

 eigenvalue-minimisations  :   952
 total energy-change (2. order) :-0.6057471E-03  (-0.2892519E-04)
 number of electron     228.0000189 magnetization      -0.0197733
 augmentation part       67.7305119 magnetization       0.7005916

 Broyden mixing:
  rms(total) = 0.35669E-02    rms(broyden)= 0.35631E-02
  rms(prec ) = 0.44023E-02
  weight for this iteration     100.00

 eigenvalues of (default mixing * dielectric matrix)
  average eigenvalue GAMMA=   0.9519
  2.7697  2.7697  1.8500  1.8500  1.7200  1.7200  1.1026  1.1026  0.7477  0.7477
  0.1411  0.5779  0.5779  0.5703  0.5089  0.5089  0.4304  0.4304  0.4643  0.2799
  0.3455  0.3455  0.3326

 Free energy of the ion-electron system (eV)
  ---------------------------------------------------
  alpha Z        PSCENC =       409.12303285
  Ewald energy   TEWEN  =     39459.95060245
  -1/2 Hartree   DENC   =    -54408.18484160
  -exchange  EXHF       =         0.00000000
  -V(xc)+E(xc)   XCENC  =       553.87901819
  PAW double counting   =     12613.23165272   -12481.31887274
  entropy T*S    EENTRO =        -0.03691481
  eigenvalues    EBANDS =     -1763.90693124
  atomic energy  EATOM  =     15376.83878752
  ---------------------------------------------------
  free energy    TOTEN  =      -240.42446668 eV

  energy without entropy =     -240.38755187  energy(sigma->0) =     -240.41216174


--------------------------------------------------------------------------------------------------------




----------------------------------------- Iteration    1(  29)  ---------------------------------------


    POTLOK:  cpu time    0.04: real time    0.04
    SETDIJ:  cpu time    0.01: real time    0.01
     EDDAV:  cpu time    0.49: real time    0.49
       DOS:  cpu time    0.00: real time    0.00
    CHARGE:  cpu time    0.03: real time    0.03
    MIXING:  cpu time    0.00: real time    0.00
    --------------------------------------------
      LOOP:  cpu time    0.56: real time    0.81

 eigenvalue-minimisations  :   728
 total energy-change (2. order) :-0.4584789E-03  (-0.1152631E-04)
 number of electron     228.0000189 magnetization      -0.0192105
 augmentation part       67.7288461 magnetization       0.7013917

 Broyden mixing:
  rms(total) = 0.25701E-02    rms(broyden)= 0.25688E-02
  rms(prec ) = 0.31128E-02
  weight for this iteration     100.00

 eigenvalues of (default mixing * dielectric matrix)
  average eigenvalue GAMMA=   0.9716
  3.2537  2.6804  1.8373  1.8373  1.7836  1.7836  1.1974  1.1974  0.7860  0.7860
  0.6103  0.6103  0.1411  0.5840  0.5840  0.5069  0.5069  0.4295  0.4295  0.4701
  0.2799  0.3454  0.3454  0.3322

 Free energy of the ion-electron system (eV)
  ---------------------------------------------------
  alpha Z        PSCENC =       409.12303285
  Ewald energy   TEWEN  =     39459.95060245
  -1/2 Hartree   DENC   =    -54409.99378296
  -exchange  EXHF       =         0.00000000
  -V(xc)+E(xc)   XCENC  =       553.88638629
  PAW double counting   =     12613.01225884   -12481.10698838
  entropy T*S    EENTRO =        -0.03693109
  eigenvalues    EBANDS =     -1762.09829066
  atomic energy  EATOM  =     15376.83878752
  ---------------------------------------------------
  free energy    TOTEN  =      -240.42492516 eV

  energy without entropy =     -240.38799407  energy(sigma->0) =     -240.41261479


--------------------------------------------------------------------------------------------------------




----------------------------------------- Iteration    1(  30)  ---------------------------------------


    POTLOK:  cpu time    0.03: real time    0.03
    SETDIJ:  cpu time    0.01: real time    0.01
     EDDAV:  cpu time    0.48: real time    0.48
       DOS:  cpu time    0.00: real time    0.00
    CHARGE:  cpu time    0.03: real time    0.03
    MIXING:  cpu time    0.00: real time    0.00
    --------------------------------------------
      LOOP:  cpu time    0.55: real time    0.84

 eigenvalue-minimisations  :   712
 total energy-change (2. order) :-0.3222579E-03  (-0.6601390E-05)
 number of electron     228.0000189 magnetization      -0.0190977
 augmentation part       67.7292035 magnetization       0.7009157

 Broyden mixing:
  rms(total) = 0.15484E-02    rms(broyden)= 0.15467E-02
  rms(prec ) = 0.18807E-02
  weight for this iteration     100.00

 eigenvalues of (default mixing * dielectric matrix)
  average eigenvalue GAMMA=   1.0032
  3.9599  2.6485  1.8270  1.8270  1.8346  1.8346  1.3334  1.3334  0.8657  0.8657
  0.6217  0.6217  0.1411  0.5938  0.5938  0.5090  0.5090  0.5304  0.4298  0.4298
  0.4672  0.2799  0.3454  0.3454  0.3322

 Free energy of the ion-electron system (eV)
  ---------------------------------------------------
  alpha Z        PSCENC =       409.12303285
  Ewald energy   TEWEN  =     39459.95060245
  -1/2 Hartree   DENC   =    -54410.99345149
  -exchange  EXHF       =         0.00000000
  -V(xc)+E(xc)   XCENC  =       553.89058544
  PAW double counting   =     12612.86722844   -12480.96121164
  entropy T*S    EENTRO =        -0.03709070
  eigenvalues    EBANDS =     -1761.10373028
  atomic energy  EATOM  =     15376.83878752
  ---------------------------------------------------
  free energy    TOTEN  =      -240.42524742 eV

  energy without entropy =     -240.38815672  energy(sigma->0) =     -240.41288385


--------------------------------------------------------------------------------------------------------




----------------------------------------- Iteration    1(  31)  ---------------------------------------


    POTLOK:  cpu time    0.03: real time    0.04
    SETDIJ:  cpu time    0.01: real time    0.01
     EDDAV:  cpu time    0.46: real time    0.46
       DOS:  cpu time    0.00: real time    0.00
    CHARGE:  cpu time    0.03: real time    0.03
    MIXING:  cpu time    0.00: real time    0.00
    --------------------------------------------
      LOOP:  cpu time    0.54: real time    0.80

 eigenvalue-minimisations  :   664
 total energy-change (2. order) :-0.2097173E-03  (-0.3508787E-05)
 number of electron     228.0000189 magnetization      -0.0191363
 augmentation part       67.7283114 magnetization       0.7004974

 Broyden mixing:
  rms(total) = 0.10452E-02    rms(broyden)= 0.10432E-02
  rms(prec ) = 0.12839E-02
  weight for this iteration     100.00

 eigenvalues of (default mixing * dielectric matrix)
  average eigenvalue GAMMA=   1.0576
  5.1482  2.7293  1.9530  1.9530  1.8206  1.8206  1.3370  1.3370  0.9837  0.8291
  0.6983  0.6983  0.6280  0.6280  0.6425  0.1411  0.5094  0.5094  0.5140  0.4299
  0.4299  0.4540  0.2799  0.3454  0.3454  0.3322

 Free energy of the ion-electron system (eV)
  ---------------------------------------------------
  alpha Z        PSCENC =       409.12303285
  Ewald energy   TEWEN  =     39459.95060245
  -1/2 Hartree   DENC   =    -54411.48039842
  -exchange  EXHF       =         0.00000000
[...]
 -0.050 -11.634   0.415   0.055  -0.378   0.002   0.697  -0.046
  0.022   0.415 -12.340   0.080  -0.145  -0.003  -0.046   0.779
 -0.103   0.055   0.080 -12.541   0.016   0.019  -0.005  -0.011
  0.068  -0.378  -0.145   0.016 -12.385  -0.008   0.040   0.019
  0.793   0.002  -0.003   0.019  -0.008   0.255  -0.004   0.001
  0.002   0.697  -0.046  -0.005   0.040  -0.004   0.308   0.025
 -0.003  -0.046   0.779  -0.011   0.019   0.001   0.025   0.265
  0.019  -0.005  -0.011   0.798  -0.005  -0.006   0.003   0.004
 -0.008   0.040   0.019  -0.005   0.781   0.004  -0.023  -0.009
  0.002   0.001  -0.001  -0.009   0.002  -0.000  -0.003  -0.001
 -0.000  -0.000   0.000   0.001  -0.000   0.000   0.000  -0.000
 -0.046  -0.020   0.000  -0.002   0.006   0.008   0.003  -0.000
 -0.002  -0.010  -0.023  -0.044   0.000   0.001   0.002   0.004
 -0.004  -0.002   0.028  -0.019  -0.046   0.001   0.001  -0.005
  0.044   0.012   0.001  -0.000  -0.003  -0.009  -0.002  -0.000
 -0.000   0.006   0.013   0.042  -0.001  -0.000  -0.001  -0.003
  0.001  -0.000  -0.026   0.010   0.042  -0.000  -0.000   0.005
 pseudopotential strength for first ion, spin component:           2
 -7.275   0.043   0.021   0.111  -0.053  -0.071  -0.010  -0.003
  0.043  -7.830  -0.401  -0.017   0.413  -0.010   0.021   0.061
  0.021  -0.401  -7.335  -0.046   0.077  -0.003   0.061  -0.055
  0.111  -0.017  -0.046  -7.268   0.045  -0.009   0.004   0.005
 -0.053   0.413   0.077   0.045  -7.160   0.008  -0.064  -0.010
 -0.071  -0.010  -0.003  -0.009   0.008   0.565   0.002   0.001
 -0.010   0.021   0.061   0.004  -0.064   0.002   0.534  -0.023
 -0.003   0.061  -0.055   0.005  -0.010   0.001  -0.023   0.561
 -0.009   0.004   0.005  -0.071  -0.009   0.005  -0.001  -0.003
  0.008  -0.064  -0.010  -0.009  -0.082  -0.003   0.024   0.004
  0.004   0.050   0.023  -0.011  -0.020  -0.000  -0.009  -0.004
 -0.000  -0.005  -0.002   0.002   0.002   0.000   0.001   0.000
 -0.077  -0.016   0.002   0.009   0.005   0.016   0.002  -0.000
  0.009  -0.004  -0.013  -0.073   0.002  -0.002   0.000   0.001
 -0.002   0.009   0.040  -0.011  -0.064   0.000  -0.002  -0.008
  0.056   0.010  -0.000  -0.005  -0.003  -0.012  -0.002   0.000
 -0.005   0.003   0.008   0.053  -0.002   0.001  -0.000  -0.001
  0.000  -0.005  -0.029   0.006   0.047  -0.000   0.001   0.006
 total augmentation occupancy for first ion, spin component:           1
  1.127   0.019  -0.007  -0.028  -0.003  -0.110  -0.030  -0.004  -0.082   0.028   0.006  -0.009   0.021  -0.020   0.009  -0.041
  0.019   1.034  -0.006  -0.013   0.003  -0.032   0.287   0.251   0.022  -0.230   0.127  -0.077  -0.052  -0.048  -0.072  -0.007
 -0.007  -0.006   1.083   0.002   0.007  -0.005   0.250  -0.058   0.022  -0.092   0.056  -0.053  -0.019  -0.038  -0.030   0.000
 -0.028  -0.013   0.002   1.127  -0.003  -0.082   0.021   0.022  -0.116  -0.017  -0.001  -0.027  -0.021   0.009  -0.021   0.007
 -0.003   0.003   0.007  -0.003   1.059   0.029  -0.229  -0.092  -0.017  -0.120  -0.027   0.034   0.022   0.013   0.023   0.000
 -0.110  -0.032  -0.005  -0.082   0.029   0.678   0.018  -0.059  -0.190  -0.009   0.053  -0.013   0.190  -0.140   0.002  -0.001
 -0.030   0.287   0.250   0.021  -0.229   0.018   0.568   0.138  -0.029  -0.130   0.213  -0.114  -0.046  -0.066  -0.066   0.003
 -0.004   0.251  -0.058   0.022  -0.092  -0.059   0.138   0.494  -0.012  -0.029   0.138  -0.054  -0.038  -0.070  -0.067   0.000
 -0.082   0.022   0.022  -0.116  -0.017  -0.190  -0.029  -0.012   0.679  -0.013  -0.022   0.037  -0.134   0.160  -0.044   0.007
  0.028  -0.230  -0.092  -0.017  -0.120  -0.009  -0.130  -0.029  -0.013   0.362  -0.028   0.003   0.018   0.005   0.097  -0.001
  0.006   0.127   0.056  -0.001  -0.027   0.053   0.213   0.138  -0.022  -0.028   1.124  -0.302  -0.034  -0.077   0.189   0.000
 -0.009  -0.077  -0.053  -0.027   0.034  -0.013  -0.114  -0.054   0.037   0.003  -0.302   0.226   0.010   0.033  -0.079  -0.000
  0.021  -0.052  -0.019  -0.021   0.022   0.190  -0.046  -0.038  -0.134   0.018  -0.034   0.010   0.202   0.063   0.004  -0.010
 -0.020  -0.048  -0.038   0.009   0.013  -0.140  -0.066  -0.070   0.160   0.005  -0.077   0.033   0.063   0.251  -0.001  -0.004
  0.009  -0.072  -0.030  -0.021   0.023   0.002  -0.066  -0.067  -0.044   0.097   0.189  -0.079   0.004  -0.001   0.132  -0.000
 -0.041  -0.007   0.000   0.007   0.000  -0.001   0.003   0.000   0.007  -0.001   0.000  -0.000  -0.010  -0.004  -0.000   0.002
  0.007   0.000  -0.007  -0.035   0.000   0.007   0.000   0.004  -0.001   0.001  -0.000  -0.001  -0.004  -0.013   0.000   0.000
  0.001   0.004   0.022  -0.007  -0.032  -0.001   0.014   0.003   0.005  -0.003  -0.018   0.007  -0.001  -0.000  -0.010  -0.000
 total augmentation occupancy for first ion, spin component:           2
  0.840   0.017   0.006   0.055  -0.026  -0.413  -0.023   0.016   0.017   0.010  -0.028  -0.003  -0.083   0.054   0.005  -0.028
  0.017   0.539  -0.186  -0.013   0.185  -0.028  -0.214   0.062   0.018  -0.051  -0.050  -0.020  -0.008   0.010   0.001  -0.005
  0.006  -0.186   0.800  -0.029   0.042   0.013   0.061  -0.340   0.003  -0.041  -0.040  -0.021   0.006   0.011   0.027   0.000
  0.055  -0.013  -0.029   0.847   0.006   0.017   0.017   0.003  -0.409  -0.006  -0.012  -0.028   0.045  -0.067   0.007   0.001
 -0.026   0.185   0.042   0.006   0.866   0.012  -0.048  -0.041  -0.006  -0.318   0.018   0.029   0.001   0.004  -0.038   0.000
 -0.413  -0.028   0.013   0.017   0.012   0.322   0.033  -0.032  -0.046  -0.025   0.010   0.004   0.063  -0.050  -0.007   0.015
 -0.023  -0.214   0.061   0.017  -0.048   0.033  -0.041  -0.111  -0.037   0.090  -0.026   0.007   0.018   0.006   0.018   0.002
  0.016   0.062  -0.340   0.003  -0.041  -0.032  -0.111   0.174  -0.018   0.060   0.010   0.013  -0.004  -0.008  -0.004  -0.001
  0.017   0.018   0.003  -0.409  -0.006  -0.046  -0.037  -0.018   0.336   0.005  -0.007   0.018  -0.045   0.061  -0.008  -0.001
  0.010  -0.051  -0.041  -0.006  -0.318  -0.025   0.090   0.060   0.005   0.134   0.019  -0.007  -0.009  -0.009   0.014  -0.000
 -0.028  -0.050  -0.040  -0.012   0.018   0.010  -0.026   0.010  -0.007   0.019   0.159   0.115   0.005   0.003   0.006   0.001
 -0.003  -0.020  -0.021  -0.028   0.029   0.004   0.007   0.013   0.018  -0.007   0.115  -0.055  -0.005  -0.002   0.022   0.000
 -0.083  -0.008   0.006   0.045   0.001   0.063   0.018  -0.004  -0.045  -0.009   0.005  -0.005   0.025  -0.012  -0.002   0.003
  0.054   0.010   0.011  -0.067   0.004  -0.050   0.006  -0.008   0.061  -0.009   0.003  -0.002  -0.012   0.026  -0.002  -0.002
  0.005   0.001   0.027   0.007  -0.038  -0.007   0.018  -0.004  -0.008   0.014   0.006   0.022  -0.002  -0.002   0.010  -0.000
 -0.028  -0.005   0.000   0.001   0.000   0.015   0.002  -0.001  -0.001  -0.000   0.001   0.000   0.003  -0.002  -0.000   0.001
  0.001   0.001  -0.006  -0.024  -0.001  -0.001  -0.001   0.003   0.013   0.001   0.000   0.001  -0.002   0.002  -0.000  -0.000
  0.001  -0.006   0.014  -0.007  -0.024  -0.001   0.002  -0.005   0.004   0.008  -0.004  -0.003  -0.000   0.001   0.002  -0.000


------------------------ aborting loop because EDIFF is reached ----------------------------------------


    CHARGE:  cpu time    0.03: real time    0.03
    FORLOC:  cpu time    0.00: real time    0.00
    FORNL :  cpu time    0.29: real time    0.29
    STRESS:  cpu time    0.29: real time    0.29
    FORCOR:  cpu time    0.03: real time    0.03
    FORHAR:  cpu time    0.00: real time    0.01
    MIXING:  cpu time    0.00: real time    0.00

  FORCE on cell =-STRESS in cart. coord.  units (eV):
  Direction    XX          YY          ZZ          XY          YZ          ZX
  --------------------------------------------------------------------------------------
  Alpha Z   409.12303   409.12303   409.12303
  Ewald  -54099.93080 45288.16633 47350.93262    -6.82933    -5.35226   -68.03614
  Hartree-47682.32481 50017.85310 51117.37805    -3.01712     0.33267   -28.32642
  E(xc)   -1116.09053 -1116.45321 -1116.80628     0.07100    -0.04820     0.00688
  Local   97722.74514-99451.39909************     9.51925     1.33889    90.77548
  n-local   253.08521   255.82467   266.92726    -0.28752    -0.40988     0.59172
  augment  1373.93174  1388.82335  1379.05884     0.10230     1.47153     0.30243
  Kinetic  3148.71570  3210.28985  3160.87476     0.28781     2.41590     0.15773
  Fock        0.00000     0.00000     0.00000     0.00000     0.00000     0.00000
  -------------------------------------------------------------------------------------
  Total       9.25468     2.22803    19.98230    -0.15362    -0.25135    -4.52833
  in kB      19.25846     4.63639    41.58203    -0.31968    -0.52305    -9.42320
  external pressure =       21.83 kB  Pullay stress =        0.00 kB


 VOLUME and BASIS-vectors are now :
 -----------------------------------------------------------------------------
  energy-cutoff  :      367.69
  volume of cell :      769.93
      direct lattice vectors                 reciprocal lattice vectors
    18.544600000  0.000000000  0.000000000     0.053924053  0.000000000  0.000000000
     0.000000000  4.453300000  0.000000000     0.000000000  0.224552579  0.000000000
     0.000000000  0.000000000  9.322900000     0.000000000  0.000000000  0.107262762

  length of vectors
    18.544600000  4.453300000  9.322900000     0.053924053  0.224552579  0.107262762


 FORCES acting on ions
    electron-ion (+dipol)            ewald-force                    non-local-force                 convergence-correction
 -----------------------------------------------------------------------------------------------
   0.156E+04 -.125E+02 -.575E+02   -.156E+04 0.124E+02 0.590E+02   -.789E+01 0.106E+01 0.931E+00   -.556E-02 -.169E-02 -.706E-02
   -.151E+04 0.137E+02 0.383E+02   0.151E+04 -.129E+02 -.379E+02   0.636E+01 -.787E+00 -.252E+00   0.269E-01 -.504E-02 -.641E-01
   -.150E+04 -.131E+02 0.403E+02   0.150E+04 0.121E+02 -.400E+02   0.488E+01 0.945E+00 -.312E+00   0.184E-01 0.111E-01 -.248E-01
   0.156E+04 0.126E+02 -.575E+02   -.156E+04 -.124E+02 0.591E+02   -.768E+01 -.102E+01 0.917E+00   -.422E-02 -.131E-02 0.956E-02
   0.300E+03 -.102E+02 -.791E+02   -.299E+03 0.102E+02 0.838E+02   -.182E+00 0.312E+00 -.114E+00   -.359E-01 0.137E-02 -.404E-02
   -.317E+03 -.140E+02 0.680E+02   0.317E+03 0.137E+02 -.712E+02   -.187E+00 0.596E+00 -.187E-01   -.456E-01 -.529E-02 -.536E-02
   -.313E+03 0.152E+02 0.630E+02   0.313E+03 -.149E+02 -.663E+02   0.204E+00 -.712E+00 0.117E+00   -.336E-01 0.259E-02 -.901E-03
   0.301E+03 0.108E+02 -.801E+02   -.300E+03 -.107E+02 0.848E+02   0.664E-01 -.417E+00 -.633E-01   -.408E-01 -.388E-03 0.713E-02
   -.952E+03 -.168E+02 -.299E+02   0.954E+03 0.162E+02 0.319E+02   -.151E+01 0.488E+00 -.194E+01   0.170E-01 0.354E-01 0.104E-01
   0.940E+03 -.937E+01 0.808E+02   -.942E+03 0.948E+01 -.855E+02   0.731E+00 0.289E+00 0.194E+00   -.268E-01 -.329E-03 0.314E-02
   0.940E+03 0.938E+01 0.803E+02   -.942E+03 -.950E+01 -.850E+02   0.806E+00 -.313E+00 0.284E+00   -.332E-01 0.841E-03 -.581E-02
   -.955E+03 0.201E+02 -.407E+02   0.957E+03 -.192E+02 0.416E+02   -.160E+01 -.869E+00 -.898E+00   -.211E-01 -.381E-01 0.341E-01
   0.128E+04 0.422E+01 -.224E+01   -.129E+04 -.407E+01 0.100E+02   0.145E+02 -.765E+00 -.828E+01   -.576E-02 -.107E-02 -.654E-03
   -.129E+04 -.533E+01 0.152E+02   0.131E+04 0.120E+02 -.229E+02   -.218E+02 -.670E+01 0.775E+01   0.163E-01 0.233E-01 -.171E-01
   -.129E+04 0.986E+01 0.193E+02   0.131E+04 -.176E+02 -.266E+02   -.221E+02 0.772E+01 0.727E+01   0.375E-02 -.229E-01 0.144E-01
   0.128E+04 -.438E+01 -.279E+01   -.129E+04 0.407E+01 0.102E+02   0.146E+02 0.864E+00 -.796E+01   -.509E-02 0.104E-02 -.423E-03
   0.262E+03 0.439E+02 0.258E+02   -.263E+03 -.528E+02 -.286E+02   0.103E+01 0.948E+01 0.340E+01   -.328E-01 -.607E-03 -.105E-02
   -.261E+03 0.423E+02 -.143E+02   0.260E+03 -.519E+02 0.147E+02   0.167E+01 0.101E+02 -.548E+00   -.377E-01 -.219E-02 -.161E-02
   -.260E+03 -.389E+02 -.182E+02   0.259E+03 0.485E+02 0.180E+02   0.130E+01 -.100E+02 0.516E-01   -.383E-01 -.190E-02 0.103E-01
   0.261E+03 -.436E+02 0.246E+02   -.263E+03 0.532E+02 -.277E+02   0.164E+01 -.101E+02 0.368E+01   -.334E-01 0.151E-02 0.784E-03
   -.777E+03 0.384E+02 0.221E+02   0.775E+03 -.439E+02 -.212E+02   0.253E+01 0.546E+01 -.908E+00   -.109E-01 0.324E-02 0.309E-03
   0.797E+03 0.470E+02 -.271E+02   -.799E+03 -.550E+02 0.292E+02   0.208E+01 0.768E+01 -.186E+01   -.235E-01 0.184E-02 -.296E-02
   0.798E+03 -.467E+02 -.271E+02   -.799E+03 0.549E+02 0.296E+02   0.172E+01 -.790E+01 -.228E+01   -.284E-01 -.217E-02 0.167E-02
   -.774E+03 -.527E+02 0.317E+02   0.768E+03 0.634E+02 -.363E+02   0.664E+01 -.107E+02 0.455E+01   -.115E-02 0.244E-02 0.690E-02
   0.129E+04 -.136E+03 0.328E+02   -.130E+04 0.164E+03 -.443E+02   0.139E+02 -.280E+02 0.114E+02   -.471E-02 -.188E-02 0.731E-02
   -.130E+04 -.128E+03 -.356E+02   0.132E+04 0.148E+03 0.481E+02   -.196E+02 -.202E+02 -.125E+02   0.148E-01 0.227E-01 0.139E-01
   -.130E+04 0.126E+03 -.323E+02   0.132E+04 -.147E+03 0.442E+02   -.189E+02 0.207E+02 -.119E+02   0.102E-01 -.173E-01 0.217E-01
   0.129E+04 0.136E+03 0.326E+02   -.130E+04 -.164E+03 -.443E+02   0.140E+02 0.280E+02 0.116E+02   -.426E-02 0.133E-02 -.531E-02
   0.260E+03 -.194E+03 0.675E+01   -.260E+03 0.236E+03 -.858E+01   0.409E+00 -.417E+02 0.147E+01   -.361E-01 -.168E-02 0.306E-02
   -.291E+03 -.182E+03 -.159E+02   0.296E+03 0.220E+03 0.200E+02   -.430E+01 -.381E+02 -.317E+01   -.286E-01 0.447E-02 -.515E-02
   -.290E+03 0.181E+03 -.161E+02   0.295E+03 -.220E+03 0.199E+02   -.436E+01 0.387E+02 -.281E+01   -.365E-01 0.108E-02 0.780E-02
   0.258E+03 0.194E+03 0.594E+01   -.259E+03 -.236E+03 -.782E+01   0.875E+00 0.418E+02 0.135E+01   -.319E-01 -.553E-04 -.334E-02
   -.787E+03 -.178E+03 -.102E+02   0.787E+03 0.213E+03 0.931E+01   0.121E+00 -.356E+02 0.845E+00   -.337E-01 0.774E-02 0.811E-02
   0.799E+03 -.192E+03 -.373E+01   -.800E+03 0.232E+03 0.670E+01   0.121E+01 -.393E+02 -.294E+01   -.240E-01 -.195E-02 -.480E-02
   0.800E+03 0.192E+03 -.439E+01   -.800E+03 -.232E+03 0.672E+01   0.746E+00 0.399E+02 -.237E+01   -.253E-01 0.256E-02 0.692E-02
   -.788E+03 0.183E+03 -.238E+02   0.786E+03 -.219E+03 0.275E+02   0.256E+01 0.369E+02 -.378E+01   -.217E-01 -.769E-02 0.186E-03
 -----------------------------------------------------------------------------------------------
   0.162E+02 0.254E+01 0.909E+01   0.796E-12 -.284E-13 0.604E-13   -.156E+02 -.256E+01 -.911E+01   -.603E+00 0.109E-01 0.132E-01
 
 
 POSITION                                       TOTAL-FORCE (eV/Angst)
 -----------------------------------------------------------------------------------
      5.71205      2.28454      1.12154        -0.651855      0.997945      2.420480
     12.83536      0.08725      3.43824         0.004491      0.049364      0.009919
     12.74165      2.14522      8.10547         0.014189     -0.022585      0.023443
      5.71205      4.39541      5.78299        -0.254942     -0.903575      2.513558
      8.56025      2.28454      1.12154         0.422428      0.324177      4.579562
      9.98435      0.05789      3.53991         0.130367      0.305496     -3.287412
      9.98435      2.16876      8.20136        -0.412237     -0.444894     -3.106264
      8.56025      4.39541      5.78299         0.699330     -0.338764      4.608693
     11.53900      2.26928      1.34440         0.008651      0.016905      0.046043
      7.13615      0.05789      3.53991        -1.567177      0.402713     -4.482035
      7.13615      2.16876      8.20136        -1.602059     -0.430182     -4.413681
     11.53937      4.43071      5.96484         0.006414     -0.000019      0.029918
      5.71205      3.53325      2.64957        -0.112339     -0.607324     -0.497858
     12.95305      1.37369      2.16500        -0.008690      0.003088      0.030991
     12.94661      0.88372      6.83141        -0.002890     -0.002294      0.028618
      5.71205      3.14670      7.31102        -0.158828      0.559251     -0.549280
      8.56025      3.53325      2.64957         0.054018      0.520065      0.540041
      9.98435      1.30660      2.01188         0.481777      0.458083     -0.184511
      9.98435      0.92005      6.67333         0.396892     -0.395909     -0.108291
      8.56025      3.14670      7.31102         0.184394     -0.492674      0.624034
     11.40740      3.54845      2.68885         0.000015     -0.033027     -0.010659
      7.13615      1.30660      2.01188         0.380275     -0.288498      0.176808
      7.13615      0.92005      6.67333         0.158706      0.294116      0.166684
     11.41513      3.11828      7.34623        -0.000084      0.016028     -0.007357
      5.71205      1.02916      4.32955        -0.303441     -0.255460     -0.091220
     13.02837      3.02247      0.32430         0.003390      0.011033      0.002400
     13.02372      3.64763      5.01119        -0.003653     -0.011652      0.022028
      5.71205      1.19749      8.99100        -0.278669      0.257590     -0.067240
      8.56025      1.02916      4.32955         0.050360      0.391380     -0.350617
      9.98435      3.25581      0.33190         0.677169     -0.054863      0.855252
      9.98435      3.42414      4.99335         0.629472      0.073230      1.002773
      8.56025      1.19749      8.99100         0.296109     -0.463770     -0.536191
     11.41370      1.03309      4.41256        -0.010708      0.016901      0.015194
      7.13615      3.25581      0.33190         0.422240      0.863210      0.025613
      7.13615      3.42414      4.99335         0.362176     -0.797547     -0.038753
     11.44435      1.19873      9.06763        -0.015291     -0.017538      0.009319
 -----------------------------------------------------------------------------------
    total drift:                               -0.020145     -0.005819     -0.003704


--------------------------------------------------------------------------------------------------------



  FREE ENERGIE OF THE ION-ELECTRON SYSTEM (eV)
  ---------------------------------------------------
  free  energy   TOTEN  =      -242.04134305 eV

  energy  without entropy=     -242.02335412  energy(sigma->0) =     -242.03534674
 
 d Force = 0.1812366E-03[ 0.442E-04, 0.318E-03]  d Energy = 0.3805180E-03-0.199E-03
 d Force = 0.1827770E+01[ 0.183E+01, 0.183E+01]  d Ewald  = 0.1827770E+01-0.432E-06


--------------------------------------------------------------------------------------------------------


    POTLOK:  cpu time    0.04: real time    0.04


--------------------------------------------------------------------------------------------------------




--------------------------------------------------------------------------------------------------------


  
 reached required accuracy - stopping structural energy minimisation
     LOOP+:  cpu time    3.75: real time    4.29
    4ORBIT:  cpu time    0.00: real time    0.00

 total amount of memory used by VASP on root node    36841. kBytes
========================================================================

   base      :      30000. kBytes
   nonl-proj :       1787. kBytes
   fftplans  :        902. kBytes
   grid      :       2239. kBytes
   one-center:        155. kBytes
   wavefun   :       1758. kBytes
 
  
  
 General timing and accounting informations for this job:
 ========================================================
  
                  Total CPU time used (sec):      205.678
                            User time (sec):      204.538
                          System time (sec):        1.140
                         Elapsed time (sec):      278.355
  
                   Maximum memory used (kb):       87848.
                   Average memory used (kb):           0.
  
                          Minor page faults:        23590
                          Major page faults:            0
                 Voluntary context switches:        17117
