 vasp.5.3.3 18Dez12 (build May 12 2016 12:04:25) complex                        
  
 executed on             LinuxIFC date 2019.05.18  14:08:20
 running on   32 total cores
 distrk:  each k-point on   32 cores,    1 groups
 distr:  one band on NCORES_PER_BAND=   4 cores,    8 groups


--------------------------------------------------------------------------------------------------------


 INCAR:
 POTCAR:    PAW_PBE Mn 06Sep2000                  
 POTCAR:    PAW_PBE O 08Apr2002                   
 POTCAR:    PAW_PBE Mn 06Sep2000                  
  local pseudopotential read in
  partial core-charges read in
  partial kinetic energy density read in
  atomic valenz-charges read in
  non local Contribution for L=           2  read in
    real space projection operators read in
  non local Contribution for L=           2  read in
    real space projection operators read in
  non local Contribution for L=           0  read in
    real space projection operators read in
  non local Contribution for L=           0  read in
    real space projection operators read in
  non local Contribution for L=           1  read in
    real space projection operators read in
  non local Contribution for L=           1  read in
    real space projection operators read in
    PAW grid and wavefunctions read in
 
   number of l-projection  operators is LMAX  =           6
   number of lm-projection operators is LMMAX =          18
 
 POTCAR:    PAW_PBE O 08Apr2002                   
  local pseudopotential read in
  partial core-charges read in
  partial kinetic energy density read in
  kinetic energy density of atom read in
  atomic valenz-charges read in
  non local Contribution for L=           0  read in
    real space projection operators read in
  non local Contribution for L=           0  read in
    real space projection operators read in
  non local Contribution for L=           1  read in
    real space projection operators read in
  non local Contribution for L=           1  read in
    real space projection operators read in
    PAW grid and wavefunctions read in
 
   number of l-projection  operators is LMAX  =           4
   number of lm-projection operators is LMMAX =           8
 

 ----------------------------------------------------------------------------- 
|                                                                             |
|  ADVICE TO THIS USER RUNNING 'VASP/VAMP'   (HEAR YOUR MASTER'S VOICE ...):  |
|                                                                             |
|      You enforced a specific xc-type in the INCAR file,                     |
|      a different type was found on the POTCAR file                          |
|          I HOPE YOU KNOW, WHAT YOU ARE  DOING                               |
|                                                                             |
 ----------------------------------------------------------------------------- 

  PAW_PBE Mn 06Sep2000                  :
 energy of atom  1       EATOM= -416.7541
 kinetic energy error for atom=    0.0024 (will be added to EATOM!!)
  PAW_PBE O 08Apr2002                   :
 energy of atom  2       EATOM= -432.3788
 kinetic energy error for atom=    0.0208 (will be added to EATOM!!)
 
 
 POSCAR: (Mn O2)4  (P1) ~ POSCAR_1 (VASP)        
  positions in direct lattice
  velocities in cartesian coordinates
 exchange correlation table for  LEXCH =       14
   RHO(1)=    0.500       N(1)  =     2000
   RHO(2)=  100.500       N(2)  =     4000
 


--------------------------------------------------------------------------------------------------------


 ion  position               nearest neighbor table
   1  0.000  0.000  0.000-   8 1.91   7 1.91   6 1.91   5 1.91  10 1.92   9 1.92   2 2.87   2 2.87
                             3 2.87   3 2.87   4 2.87   4 2.87
   2  0.000  0.500  0.000-   6 1.91   5 1.91   8 1.91   7 1.91  12 1.92  11 1.92   1 2.87   1 2.87
                             4 2.87   4 2.87   3 2.87   3 2.87
   3  0.500  0.000  0.000-  12 1.91  11 1.91  10 1.91   9 1.91   6 1.92   5 1.92   4 2.87   4 2.87
                             1 2.87   1 2.87   2 2.87   2 2.87
   4  0.500  0.500  0.000-  10 1.91   9 1.91  12 1.91  11 1.91   8 1.92   7 1.92   3 2.87   3 2.87
                             2 2.87   2 2.87   1 2.87   1 2.87
   5  0.192  0.813  0.136-   2 1.91   1 1.91   3 1.92
   6  0.808  0.187  0.864-   2 1.91   1 1.91   3 1.92
   7  0.192  0.313  0.136-   1 1.91   2 1.91   4 1.92
   8  0.808  0.687  0.864-   1 1.91   2 1.91   4 1.92
   9  0.692  0.813  0.136-   4 1.91   3 1.91   1 1.92
  10  0.308  0.187  0.864-   4 1.91   3 1.91   1 1.92
  11  0.692  0.313  0.136-   3 1.91   4 1.91   2 1.92
  12  0.308  0.687  0.864-   3 1.91   4 1.91   2 1.92
 
  LATTYP: Found a triclinic cell.
 ALAT       =     5.7437963701
 B/A-ratio  =     1.8905365620
 C/A-ratio  =     1.0003177098
 COS(alpha) =     0.0116310852
 COS(beta)  =     0.5001221666
 COS(gamma) =     0.6663927955
  
  Lattice vectors:
  
 A1 = (   2.9735415558,  -4.9141818850,  -0.0079848586)
 A2 = (   7.2354678326,  -4.0911097966,   6.9875319066)
 A3 = (  -2.7691231246,  -5.0342384119,   0.0237498512)


Analysis of symmetry for initial positions (statically):
=====================================================================
 Subroutine PRICEL returns following result:
 
  LATTYP: Found a triclinic cell.
 ALAT       =     2.8720035817
 B/A-ratio  =     0.9999633020
 C/A-ratio  =     2.5029797964
 COS(alpha) =     0.0079745817
 COS(beta)  =     0.1902299434
 COS(gamma) =     0.4997006011
  
  Lattice vectors:
  
 A1 = (  -2.8713323402,  -0.0600282634,   0.0158673549)
 A2 = (  -1.4867707779,   2.4570909425,   0.0039924293)
 A3 = (  -1.3905939365,  -0.7630438250,  -7.0113841200)
 
   4 primitive cells build up your supercell.
 

 Routine SETGRP: Setting up the symmetry group for a 
 triclinic supercell.


 Subroutine GETGRP returns: Found  2 space group operations
 (whereof  2 operations were pure point group operations)
 out of a pool of  2 trial point group operations.


The static configuration has the point symmetry S_2 .


Analysis of symmetry for dynamics (positions and initial velocities):
=====================================================================
 Subroutine PRICEL returns following result:
 
  LATTYP: Found a triclinic cell.
 ALAT       =     2.8720035817
 B/A-ratio  =     0.9999633020
 C/A-ratio  =     2.5029797964
 COS(alpha) =     0.0079745817
 COS(beta)  =     0.1902299434
 COS(gamma) =     0.4997006011
  
  Lattice vectors:
  
 A1 = (  -2.8713323402,  -0.0600282634,   0.0158673549)
 A2 = (  -1.4867707779,   2.4570909425,   0.0039924293)
 A3 = (  -1.3905939365,  -0.7630438250,  -7.0113841200)
 
   4 primitive cells build up your supercell.
 

 Routine SETGRP: Setting up the symmetry group for a 
 triclinic supercell.


 Subroutine GETGRP returns: Found  2 space group operations
 (whereof  2 operations were pure point group operations)
 out of a pool of  2 trial point group operations.


The dynamic configuration has the point symmetry S_2 .


Analysis of magnetic symmetry:
=====================================================================

 Subroutine MAGSYM returns: Found  2 space group operations
 (whereof  2 operations were pure point group operations)
 out of a pool of  2 trial space group operations
 (whereof  2 operations were pure point group operations)
 and found also     4 'primitive' translations


The magnetic configuration has the point symmetry S_2 .


 irot  :   1
 --------------------------------------------------------------------
 isymop:   1   0   0
           0   1   0
           0   0   1

 gtrans:     0.0000000     0.0000000     0.0000000

 ptrans:     0.0000000     0.0000000     0.0000000
 rotmap:
 (   1->   1)  (   2->   2)  (   3->   3)  (   4->   4)  (   5->   5) 
 (   6->   6)  (   7->   7)  (   8->   8)  (   9->   9)  (  10->  10) 
 (  11->  11)  (  12->  12) 

 ptrans:     0.5000000     0.0000000     0.0000000
 rotmap:
 (   1->   3)  (   2->   4)  (   3->   1)  (   4->   2)  (   5->   9) 
 (   6->  10)  (   7->  11)  (   8->  12)  (   9->   5)  (  10->   6) 
 (  11->   7)  (  12->   8) 

 ptrans:     0.0000000     0.5000000     0.0000000
 rotmap:
 (   1->   2)  (   2->   1)  (   3->   4)  (   4->   3)  (   5->   7) 
 (   6->   8)  (   7->   5)  (   8->   6)  (   9->  11)  (  10->  12) 
 (  11->   9)  (  12->  10) 

 ptrans:     0.5000000     0.5000000     0.0000000
 rotmap:
 (   1->   4)  (   2->   3)  (   3->   2)  (   4->   1)  (   5->  11) 
 (   6->  12)  (   7->   9)  (   8->  10)  (   9->   7)  (  10->   8) 
 (  11->   5)  (  12->   6) 


 irot  :   2
 --------------------------------------------------------------------
 isymop:  -1   0   0
           0  -1   0
           0   0  -1

 gtrans:     0.0000000     0.0000000     0.0000000

 ptrans:     0.0000000     0.0000000     0.0000000
 rotmap:
 (   1->   1)  (   2->   2)  (   3->   3)  (   4->   4)  (   5->   6) 
 (   6->   5)  (   7->   8)  (   8->   7)  (   9->  10)  (  10->   9) 
 (  11->  12)  (  12->  11) 

 ptrans:     0.5000000     0.0000000     0.0000000
 rotmap:
 (   1->   3)  (   2->   4)  (   3->   1)  (   4->   2)  (   5->  10) 
 (   6->   9)  (   7->  12)  (   8->  11)  (   9->   6)  (  10->   5) 
 (  11->   8)  (  12->   7) 

 ptrans:     0.0000000     0.5000000     0.0000000
 rotmap:
 (   1->   2)  (   2->   1)  (   3->   4)  (   4->   3)  (   5->   8) 
 (   6->   7)  (   7->   6)  (   8->   5)  (   9->  12)  (  10->  11) 
 (  11->  10)  (  12->   9) 

 ptrans:     0.5000000     0.5000000     0.0000000
 rotmap:
 (   1->   4)  (   2->   3)  (   3->   2)  (   4->   1)  (   5->  12) 
 (   6->  11)  (   7->  10)  (   8->   9)  (   9->   8)  (  10->   7) 
 (  11->   6)  (  12->   5) 
 
 
 KPOINTS: Automatic mesh                          

Automatic generation of k-mesh.
Space group operators:
 irot       det(A)        alpha          n_x          n_y          n_z        tau_x        tau_y        tau_z
    1     1.000000     0.000000     1.000000     0.000000     0.000000     0.000000     0.000000     0.000000
    2    -1.000000     0.000000     1.000000     0.000000     0.000000     0.000000     0.000000     0.000000
 
 Subroutine IBZKPT returns following result:
 ===========================================
 
 Found     76 irreducible k-points:
 
 Following reciprocal coordinates:
            Coordinates               Weight
  0.000000  0.000000  0.000000      1.000000
  0.166667 -0.000000 -0.000000      2.000000
  0.333333 -0.000000 -0.000000      2.000000
  0.500000 -0.000000 -0.000000      1.000000
  0.000000  0.166667  0.000000      2.000000
  0.166667  0.166667  0.000000      2.000000
  0.333333  0.166667  0.000000      2.000000
  0.500000  0.166667  0.000000      2.000000
 -0.333333  0.166667  0.000000      2.000000
 -0.166667  0.166667  0.000000      2.000000
  0.000000  0.333333  0.000000      2.000000
  0.166667  0.333333  0.000000      2.000000
  0.333333  0.333333  0.000000      2.000000
  0.500000  0.333333  0.000000      2.000000
 -0.333333  0.333333 -0.000000      2.000000
 -0.166667  0.333333 -0.000000      2.000000
  0.000000  0.500000 -0.000000      1.000000
  0.166667  0.500000 -0.000000      2.000000
  0.333333  0.500000  0.000000      2.000000
  0.500000  0.500000  0.000000      1.000000
  0.000000 -0.000000  0.250000      2.000000
  0.166667 -0.000000  0.250000      2.000000
  0.333333 -0.000000  0.250000      2.000000
  0.500000 -0.000000  0.250000      2.000000
 -0.333333  0.000000  0.250000      2.000000
 -0.166667  0.000000  0.250000      2.000000
  0.000000  0.166667  0.250000      2.000000
  0.166667  0.166667  0.250000      2.000000
  0.333333  0.166667  0.250000      2.000000
  0.500000  0.166667  0.250000      2.000000
 -0.333333  0.166667  0.250000      2.000000
 -0.166667  0.166667  0.250000      2.000000
  0.000000  0.333333  0.250000      2.000000
  0.166667  0.333333  0.250000      2.000000
  0.333333  0.333333  0.250000      2.000000
  0.500000  0.333333  0.250000      2.000000
 -0.333333  0.333333  0.250000      2.000000
 -0.166667  0.333333  0.250000      2.000000
 -0.000000  0.500000  0.250000      2.000000
  0.166667  0.500000  0.250000      2.000000
  0.333333  0.500000  0.250000      2.000000
  0.500000  0.500000  0.250000      2.000000
 -0.333333  0.500000  0.250000      2.000000
 -0.166667  0.500000  0.250000      2.000000
 -0.000000 -0.333333  0.250000      2.000000
  0.166667 -0.333333  0.250000      2.000000
  0.333333 -0.333333  0.250000      2.000000
  0.500000 -0.333333  0.250000      2.000000
 -0.333333 -0.333333  0.250000      2.000000
 -0.166667 -0.333333  0.250000      2.000000
  0.000000 -0.166667  0.250000      2.000000
  0.166667 -0.166667  0.250000      2.000000
  0.333333 -0.166667  0.250000      2.000000
  0.500000 -0.166667  0.250000      2.000000
 -0.333333 -0.166667  0.250000      2.000000
 -0.166667 -0.166667  0.250000      2.000000
  0.000000 -0.000000  0.500000      1.000000
  0.166667 -0.000000  0.500000      2.000000
  0.333333 -0.000000  0.500000      2.000000
  0.500000 -0.000000  0.500000      1.000000
  0.000000  0.166667  0.500000      2.000000
  0.166667  0.166667  0.500000      2.000000
  0.333333  0.166667  0.500000      2.000000
  0.500000  0.166667  0.500000      2.000000
 -0.333333  0.166667  0.500000      2.000000
 -0.166667  0.166667  0.500000      2.000000
  0.000000  0.333333  0.500000      2.000000
  0.166667  0.333333  0.500000      2.000000
  0.333333  0.333333  0.500000      2.000000
  0.500000  0.333333  0.500000      2.000000
 -0.333333  0.333333  0.500000      2.000000
 -0.166667  0.333333  0.500000      2.000000
  0.000000  0.500000  0.500000      1.000000
  0.166667  0.500000  0.500000      2.000000
  0.333333  0.500000  0.500000      2.000000
  0.500000  0.500000  0.500000      1.000000
 
 Following cartesian coordinates:
            Coordinates               Weight
  0.000000  0.000000  0.000000      1.000000
  0.028684  0.017349  0.004308      2.000000
  0.057367  0.034699  0.008617      2.000000
  0.086051  0.052048  0.012925      1.000000
 -0.000719  0.033486 -0.003502      2.000000
  0.027964  0.050835  0.000807      2.000000
  0.056648  0.068184  0.005115      2.000000
  0.085331  0.085534  0.009424      2.000000
 -0.058087 -0.001213 -0.012118      2.000000
 -0.029403  0.016137 -0.007810      2.000000
 -0.001439  0.066972 -0.007003      2.000000
  0.027245  0.084321 -0.002695      2.000000
  0.055928  0.101670  0.001614      2.000000
  0.084612  0.119020  0.005922      2.000000
 -0.058806  0.032273 -0.015620      2.000000
 -0.030122  0.049622 -0.011312      2.000000
 -0.002158  0.100457 -0.010505      1.000000
  0.026525  0.117807 -0.006196      2.000000
  0.055209  0.135156 -0.001888      2.000000
  0.083893  0.152505  0.002421      1.000000
  0.000196  0.000060  0.035611      2.000000
  0.028879  0.017410  0.039919      2.000000
  0.057563  0.034759  0.044228      2.000000
  0.086246  0.052108  0.048536      2.000000
 -0.057172 -0.034638  0.026994      2.000000
 -0.028488 -0.017289  0.031303      2.000000
 -0.000524  0.033546  0.032109      2.000000
  0.028160  0.050896  0.036418      2.000000
  0.056843  0.068245  0.040726      2.000000
  0.085527  0.085594  0.045035      2.000000
 -0.057891 -0.001152  0.023493      2.000000
 -0.029208  0.016197  0.027801      2.000000
 -0.001243  0.067032  0.028608      2.000000
  0.027440  0.084381  0.032916      2.000000
  0.056124  0.101731  0.037225      2.000000
  0.084808  0.119080  0.041533      2.000000
 -0.058611  0.032334  0.019991      2.000000
 -0.029927  0.049683  0.024299      2.000000
 -0.001963  0.100518  0.025106      2.000000
  0.026721  0.117867  0.029415      2.000000
  0.055405  0.135217  0.033723      2.000000
  0.084088  0.152566  0.038031      2.000000
 -0.059330  0.065819  0.016489      2.000000
 -0.030646  0.083169  0.020798      2.000000
  0.001634 -0.066911  0.042614      2.000000
  0.030318 -0.049562  0.046922      2.000000
  0.059002 -0.032213  0.051231      2.000000
  0.087685 -0.014863  0.055539      2.000000
 -0.055733 -0.101610  0.033997      2.000000
 -0.027049 -0.084260  0.038306      2.000000
  0.000915 -0.033425  0.039112      2.000000
  0.029599 -0.016076  0.043421      2.000000
  0.058282  0.001273  0.047729      2.000000
  0.086966  0.018623  0.052038      2.000000
 -0.056452 -0.068124  0.030496      2.000000
 -0.027769 -0.050775  0.034804      2.000000
  0.000391  0.000121  0.071222      1.000000
  0.029075  0.017470  0.075530      2.000000
  0.057758  0.034819  0.079839      2.000000
  0.086442  0.052169  0.084147      1.000000
 -0.000328  0.033607  0.067720      2.000000
  0.028355  0.050956  0.072029      2.000000
  0.057039  0.068305  0.076337      2.000000
  0.085723  0.085655  0.080645      2.000000
 -0.057696 -0.001092  0.059104      2.000000
 -0.029012  0.016257  0.063412      2.000000
 -0.001048  0.067093  0.064219      2.000000
  0.027636  0.084442  0.068527      2.000000
  0.056320  0.101791  0.072836      2.000000
  0.085003  0.119140  0.077144      2.000000
 -0.058415  0.032394  0.055602      2.000000
 -0.029731  0.049743  0.059910      2.000000
 -0.001767  0.100578  0.060717      1.000000
  0.026916  0.117928  0.065026      2.000000
  0.055600  0.135277  0.069334      2.000000
  0.084284  0.152626  0.073642      1.000000
 
 TETIRR: Found    432 inequivalent tetrahedra from      864


--------------------------------------------------------------------------------------------------------




 Dimension of arrays:
   k-points           NKPTS =     76   k-points in BZ     NKDIM =     76   number of bands    NBANDS=     48
   number of dos      NEDOS =    301   number of ions     NIONS =     12
   non local maximal  LDIM  =      6   non local SUM 2l+1 LMDIM =     18
   total plane-waves  NPLWV =  40960
   max r-space proj   IRMAX =      1   max aug-charges    IRDMAX=   7705
   dimension x,y,z NGX =    32 NGY =   32 NGZ =   40
   dimension x,y,z NGXF=    64 NGYF=   64 NGZF=   80
   support grid    NGXF=    64 NGYF=   64 NGZF=   80
   ions per type =               4   8
 NGX,Y,Z   is equivalent  to a cutoff of   9.26,  9.26,  9.22 a.u.
 NGXF,Y,Z  is equivalent  to a cutoff of  18.52, 18.52, 18.43 a.u.


 I would recommend the setting:
   dimension x,y,z NGX =    32 NGY =   32 NGZ =   40
 SYSTEM =  (Mn O2)4  (P1) ~ POSCAR_1 (VASP)        
 POSCAR =  (Mn O2)4  (P1) ~ POSCAR_1 (VASP)        

 Startparameter for this run:
   NWRITE =      1    write-flag & timer
   PREC   = normal    normal or accurate (medium, high low for compatibility)
   ISTART =      0    job   : 0-new  1-cont  2-samecut
   ICHARG =      2    charge: 1-file 2-atom 10-const
   ISPIN  =      2    spin polarized calculation?
   LNONCOLLINEAR =      F non collinear calculations
   LSORBIT =      F    spin-orbit coupling
   INIWAV =      1    electr: 0-lowe 1-rand  2-diag
   LASPH  =      F    aspherical Exc in radial PAW
   METAGGA=      F    non-selfconsistent MetaGGA calc.

 Electronic Relaxation 1
   ENCUT  =  520.0 eV  38.22 Ry    6.18 a.u.  10.68 10.68 13.42*2*pi/ulx,y,z
   ENINI  =  520.0     initial cutoff
   ENAUG  =  605.4 eV  augmentation charge cutoff
   NELM   =     60;   NELMIN=  2; NELMDL= -5     # of ELM steps 
   EDIFF  = 0.1E-03   stopping-criterion for ELM
   LREAL  =      F    real-space projection
   NLSPLINE    = F    spline interpolate recip. space projectors
   LCOMPAT=      F    compatible to vasp.4.4
   GGA_COMPAT  = T    GGA compatible to vasp.4.4-vasp.4.6
   LMAXPAW     = -100 max onsite density
   LMAXMIX     =    4 max onsite mixed and CHGCAR
   VOSKOWN=      1    Vosko Wilk Nusair interpolation
   ROPT   =    0.00000   0.00000
 Ionic relaxation
   EDIFFG = 0.1E-02   stopping-criterion for IOM
   NSW    =      0    number of steps for IOM
   NBLOCK =      1;   KBLOCK =      1    inner block; outer block 
   IBRION =     -1    ionic relax: 0-MD 1-quasi-New 2-CG
   NFREE  =      0    steps in history (QN), initial steepest desc. (CG)
   ISIF   =      2    stress and relaxation
   IWAVPR =     10    prediction:  0-non 1-charg 2-wave 3-comb
   ISYM   =      2    0-nonsym 1-usesym 2-fastsym
   LCORR  =      T    Harris-Foulkes like correction to forces

   POTIM  = 0.5000    time-step for ionic-motion
   TEIN   =    0.0    initial temperature
   TEBEG  =    0.0;   TEEND  =   0.0 temperature during run
   SMASS  =  -3.00    Nose mass-parameter (am)
   estimated Nose-frequenzy (Omega)   =  0.10E-29 period in steps =****** mass=  -0.754E-27a.u.
   SCALEE = 1.0000    scale energy and forces
   NPACO  =    256;   APACO  = 16.0  distance and # of slots for P.C.
   PSTRESS=    0.0 pullay stress

  Mass of Ions in am
   POMASS =  54.94 16.00
  Ionic Valenz
   ZVAL   =   7.00  6.00
  Atomic Wigner-Seitz radii
   RWIGS  =  -1.00 -1.00
  virtual crystal weights 
   VCA    =   1.00  1.00
   NELECT =      76.0000    total number of electrons
   NUPDOWN=      -1.0000    fix difference up-down

 DOS related values:
   EMIN   =  10.00;   EMAX   =-10.00  energy-range for DOS
   EFERMI =   0.00
   ISMEAR =    -5;   SIGMA  =   0.20  broadening in eV -4-tet -1-fermi 0-gaus

 Electronic relaxation 2 (details)
   IALGO  =     38    algorithm
   LDIAG  =      T    sub-space diagonalisation (order eigenvalues)
   LSUBROT=      T    optimize rotation matrix (better conditioning)
   TURBO    =      0    0=normal 1=particle mesh
   IRESTART =      0    0=no restart 2=restart with 2 vectors
   NREBOOT  =      0    no. of reboots
   NMIN     =      0    reboot dimension
   EREF     =   0.00    reference energy to select bands
   IMIX   =      4    mixing-type and parameters
     AMIX     =   0.40;   BMIX     =  1.00
     AMIX_MAG =   1.60;   BMIX_MAG =  1.00
     AMIN     =   0.10
     WC   =   100.;   INIMIX=   1;  MIXPRE=   1;  MAXMIX= -45

 Intra band minimization:
   WEIMIN = 0.0000     energy-eigenvalue tresh-hold
   EBREAK =  0.52E-06  absolut break condition
   DEPER  =   0.30     relativ break condition  

   TIME   =   0.40     timestep for ELM

  volume/ion in A,a.u.               =      16.72       112.82
  Fermi-wavevector in a.u.,A,eV,Ry     =   1.184547  2.238470 19.091051  1.403153
  Thomas-Fermi vector in A             =   2.320759
 
 Write flags
   LWAVE  =      F    write WAVECAR
   LCHARG =      T    write CHGCAR
   LVTOT  =      F    write LOCPOT, total local potential
   LVHAR  =      F    write LOCPOT, Hartree potential only
   LELF   =      F    write electronic localiz. function (ELF)
   LORBIT =      0    0 simple, 1 ext, 2 COOP (PROOUT)


 Dipole corrections
   LMONO  =      F    monopole corrections only (constant potential shift)
   LDIPOL =      F    correct potential (dipole corrections)
   IDIPOL =      0    1-x, 2-y, 3-z, 4-all directions 
   EPSILON=  1.0000000 bulk dielectric constant

 LDA+U is selected, type is set to LDAUTYPE =  2
   angular momentum for each species LDAUL =     2   -1
   U (eV)           for each species LDAUU =   3.9  0.0
   J (eV)           for each species LDAUJ =   0.0  0.0
 Exchange correlation treatment:
   GGA     =    PS    GGA type
   LEXCH   =    14    internal setting for exchange type
   VOSKOWN=      1    Vosko Wilk Nusair interpolation
   LHFCALC =     F    Hartree Fock is set to
   LHFONE  =     F    Hartree Fock one center treatment
   AEXX    =    0.0000 exact exchange contribution

 Linear response parameters
   LEPSILON=     F    determine dielectric tensor
   LRPA    =     F    only Hartree local field effects (RPA)
   LNABLA  =     F    use nabla operator in PAW spheres
   LVEL    =     F    velocity operator in full k-point grid
   LINTERFAST=   F  fast interpolation
   KINTER  =     0    interpolate to denser k-point grid
   CSHIFT  =0.1000    complex shift for real part using Kramers Kronig
   OMEGAMAX=  -1.0    maximum frequency
   DEG_THRESHOLD= 0.2000000E-02 threshold for treating states as degnerate
   RTIME   =    0.100 relaxation time in fs

 Orbital magnetization related:
   ORBITALMAG=     F  switch on orbital magnetization
   LCHIMAG   =     F  perturbation theory with respect to B field
   DQ        =  0.001000  dq finite difference perturbation B field



--------------------------------------------------------------------------------------------------------


 Static calculation
 charge density and potential will be updated during run
 spin polarized calculation
 Variant of blocked Davidson
 Davidson routine will perform the subspace rotation
 perform sub-space diagonalisation
    after iterative eigenvector-optimisation
 modified Broyden-mixing scheme, WC =      100.0
 initial mixing is a Kerker type mixing with AMIX =  0.4000 and BMIX =      1.0000
 Hartree-type preconditioning will be used
 using additional bands           10
 reciprocal scheme for non local part
 use partial core corrections
 calculate Harris-corrections to forces 
   (improved forces if not selfconsistent)
 use gradient corrections 
 use of overlap-Matrix (Vanderbilt PP)
 Fermi weights with tetrahedron method with Bloechl corrections


--------------------------------------------------------------------------------------------------------


  energy-cutoff  :      520.00
  volume of cell :      200.62
      direct lattice vectors                 reciprocal lattice vectors
     5.742664680  0.120056527 -0.031734710     0.172101809  0.104095754  0.025850338
    -2.973541556  4.914181885  0.007984859    -0.004316442  0.200914956 -0.021009332
    -1.480738404  0.703015562  7.027251475     0.000782108  0.000241797  0.142443758

  length of vectors
     5.744007163  5.743796370  7.215890825     0.202788556  0.202056535  0.142446110


 
 k-points in units of 2pi/SCALE and weight: Automatic mesh                          
   0.00000000  0.00000000  0.00000000       0.007
   0.02868363  0.01734929  0.00430839       0.014
   0.05736727  0.03469858  0.00861678       0.014
   0.08605090  0.05204788  0.01292517       0.007
  -0.00071941  0.03348583 -0.00350156       0.014
   0.02796423  0.05083512  0.00080683       0.014
   0.05664786  0.06818441  0.00511522       0.014
   0.08533150  0.08553370  0.00942361       0.014
  -0.05808668 -0.00121276 -0.01211833       0.014
  -0.02940304  0.01613653 -0.00780994       0.014
  -0.00143881  0.06697165 -0.00700311       0.014
   0.02724482  0.08432094 -0.00269472       0.014
   0.05592846  0.10167024  0.00161367       0.014
   0.08461209  0.11901953  0.00592206       0.014
  -0.05880608  0.03227307 -0.01561989       0.014
  -0.03012245  0.04962236 -0.01131150       0.014
  -0.00215822  0.10045748 -0.01050467       0.007
   0.02652541  0.11780677 -0.00619628       0.014
   0.05520905  0.13515606 -0.00188789       0.014
   0.08389268  0.15250536  0.00242050       0.007
   0.00019553  0.00006045  0.03561094       0.014
   0.02887916  0.01740974  0.03991933       0.014
   0.05756280  0.03475903  0.04422772       0.014
   0.08624643  0.05210833  0.04853611       0.014
  -0.05717174 -0.03463814  0.02699416       0.014
  -0.02848811 -0.01728884  0.03130255       0.014
  -0.00052388  0.03354628  0.03210938       0.014
   0.02815975  0.05089557  0.03641777       0.014
   0.05684339  0.06824486  0.04072616       0.014
   0.08552702  0.08559415  0.04503455       0.014
  -0.05789115 -0.00115231  0.02349260       0.014
  -0.02920751  0.01619698  0.02780099       0.014
  -0.00124329  0.06703210  0.02860783       0.014
   0.02744035  0.08438139  0.03291622       0.014
   0.05612398  0.10173069  0.03722461       0.014
   0.08480762  0.11907998  0.04153300       0.014
  -0.05861056  0.03233352  0.01999105       0.014
  -0.02992692  0.04968281  0.02429944       0.014
  -0.00196269  0.10051793  0.02510627       0.014
   0.02672094  0.11786722  0.02941466       0.014
   0.05540458  0.13521651  0.03372305       0.014
   0.08408821  0.15256580  0.03803144       0.014
  -0.05932996  0.06581934  0.01648949       0.014
  -0.03064633  0.08316864  0.02079788       0.014
   0.00163434 -0.06691120  0.04261405       0.014
   0.03031798 -0.04956191  0.04692244       0.014
   0.05900161 -0.03221262  0.05123083       0.014
   0.08768525 -0.01486333  0.05553922       0.014
  -0.05573293 -0.10160979  0.03399727       0.014
  -0.02704929 -0.08426050  0.03830566       0.014
   0.00091493 -0.03342538  0.03911249       0.014
   0.02959857 -0.01607608  0.04342088       0.014
   0.05828220  0.00127321  0.04772927       0.014
   0.08696584  0.01862250  0.05203766       0.014
  -0.05645234 -0.06812396  0.03049572       0.014
  -0.02776870 -0.05077467  0.03480411       0.014
   0.00039105  0.00012090  0.07122188       0.007
   0.02907469  0.01747019  0.07553027       0.014
   0.05775832  0.03481948  0.07983866       0.014
   0.08644196  0.05216878  0.08414705       0.007
  -0.00032835  0.03360672  0.06772032       0.014
   0.02835528  0.05095602  0.07202871       0.014
   0.05703892  0.06830531  0.07633710       0.014
   0.08572255  0.08565460  0.08064549       0.014
  -0.05769562 -0.00109186  0.05910354       0.014
  -0.02901199  0.01625743  0.06341193       0.014
  -0.00104776  0.06709255  0.06421877       0.014
   0.02763587  0.08444184  0.06852716       0.014
   0.05631951  0.10179114  0.07283555       0.014
   0.08500314  0.11914043  0.07714394       0.014
  -0.05841503  0.03239397  0.05560199       0.014
  -0.02973139  0.04974326  0.05991038       0.014
  -0.00176717  0.10057838  0.06071721       0.007
   0.02691647  0.11792767  0.06502560       0.014
   0.05560010  0.13527696  0.06933399       0.014
   0.08428374  0.15262625  0.07364238       0.007
 
 k-points in reciprocal lattice and weights: Automatic mesh                          
   0.00000000  0.00000000  0.00000000       0.007
   0.16666667 -0.00000000 -0.00000000       0.014
   0.33333333 -0.00000000 -0.00000000       0.014
   0.50000000 -0.00000000 -0.00000000       0.007
   0.00000000  0.16666667  0.00000000       0.014
   0.16666667  0.16666667  0.00000000       0.014
   0.33333333  0.16666667  0.00000000       0.014
   0.50000000  0.16666667  0.00000000       0.014
  -0.33333333  0.16666667  0.00000000       0.014
  -0.16666667  0.16666667  0.00000000       0.014
   0.00000000  0.33333333  0.00000000       0.014
   0.16666667  0.33333333  0.00000000       0.014
   0.33333333  0.33333333  0.00000000       0.014
   0.50000000  0.33333333  0.00000000       0.014
  -0.33333333  0.33333333 -0.00000000       0.014
  -0.16666667  0.33333333 -0.00000000       0.014
   0.00000000  0.50000000 -0.00000000       0.007
   0.16666667  0.50000000 -0.00000000       0.014
   0.33333333  0.50000000  0.00000000       0.014
   0.50000000  0.50000000  0.00000000       0.007
   0.00000000 -0.00000000  0.25000000       0.014
   0.16666667 -0.00000000  0.25000000       0.014
   0.33333333 -0.00000000  0.25000000       0.014
   0.50000000 -0.00000000  0.25000000       0.014
  -0.33333333  0.00000000  0.25000000       0.014
  -0.16666667  0.00000000  0.25000000       0.014
   0.00000000  0.16666667  0.25000000       0.014
   0.16666667  0.16666667  0.25000000       0.014
   0.33333333  0.16666667  0.25000000       0.014
   0.50000000  0.16666667  0.25000000       0.014
  -0.33333333  0.16666667  0.25000000       0.014
  -0.16666667  0.16666667  0.25000000       0.014
   0.00000000  0.33333333  0.25000000       0.014
   0.16666667  0.33333333  0.25000000       0.014
   0.33333333  0.33333333  0.25000000       0.014
   0.50000000  0.33333333  0.25000000       0.014
  -0.33333333  0.33333333  0.25000000       0.014
  -0.16666667  0.33333333  0.25000000       0.014
  -0.00000000  0.50000000  0.25000000       0.014
   0.16666667  0.50000000  0.25000000       0.014
   0.33333333  0.50000000  0.25000000       0.014
   0.50000000  0.50000000  0.25000000       0.014
  -0.33333333  0.50000000  0.25000000       0.014
  -0.16666667  0.50000000  0.25000000       0.014
  -0.00000000 -0.33333333  0.25000000       0.014
   0.16666667 -0.33333333  0.25000000       0.014
   0.33333333 -0.33333333  0.25000000       0.014
   0.50000000 -0.33333333  0.25000000       0.014
  -0.33333333 -0.33333333  0.25000000       0.014
  -0.16666667 -0.33333333  0.25000000       0.014
   0.00000000 -0.16666667  0.25000000       0.014
   0.16666667 -0.16666667  0.25000000       0.014
   0.33333333 -0.16666667  0.25000000       0.014
   0.50000000 -0.16666667  0.25000000       0.014
  -0.33333333 -0.16666667  0.25000000       0.014
  -0.16666667 -0.16666667  0.25000000       0.014
   0.00000000 -0.00000000  0.50000000       0.007
   0.16666667 -0.00000000  0.50000000       0.014
   0.33333333 -0.00000000  0.50000000       0.014
   0.50000000 -0.00000000  0.50000000       0.007
   0.00000000  0.16666667  0.50000000       0.014
   0.16666667  0.16666667  0.50000000       0.014
   0.33333333  0.16666667  0.50000000       0.014
   0.50000000  0.16666667  0.50000000       0.014
  -0.33333333  0.16666667  0.50000000       0.014
  -0.16666667  0.16666667  0.50000000       0.014
   0.00000000  0.33333333  0.50000000       0.014
   0.16666667  0.33333333  0.50000000       0.014
   0.33333333  0.33333333  0.50000000       0.014
   0.50000000  0.33333333  0.50000000       0.014
  -0.33333333  0.33333333  0.50000000       0.014
  -0.16666667  0.33333333  0.50000000       0.014
   0.00000000  0.50000000  0.50000000       0.007
   0.16666667  0.50000000  0.50000000       0.014
   0.33333333  0.50000000  0.50000000       0.014
   0.50000000  0.50000000  0.50000000       0.007
 
 position of ions in fractional coordinates (direct lattice) 
   0.00000000  0.00000000  0.00000000
   0.00000000  0.50000000  0.00000000
   0.50000000  0.00000000  0.00000000
   0.50000000  0.50000000  0.00000000
   0.19213905  0.81328466  0.13629959
   0.80786095  0.18671534  0.86370042
   0.19213905  0.31328460  0.13629959
   0.80786095  0.68671540  0.86370042
   0.69213905  0.81328466  0.13629959
   0.30786095  0.18671534  0.86370042
   0.69213905  0.31328460  0.13629959
   0.30786095  0.68671540  0.86370042
 
 position of ions in cartesian coordinates  (Angst):
   0.00000000  0.00000000  0.00000000
  -1.48677078  2.45709094  0.00399243
   2.87133234  0.06002826 -0.01586735
   1.38456156  2.51711921 -0.01187493
  -1.51676964  4.11551705  0.95820799
   2.80515435  1.62173693  6.04529370
  -0.02999869  1.65842581  0.95421556
   1.31838339  4.07882817  6.04928613
   1.35456270  4.17554531  0.94234064
  -0.06617799  1.56170867  6.06116106
   2.84133365  1.71845407  0.93834821
  -1.55294895  4.01879991  6.06515349
 


--------------------------------------------------------------------------------------------------------


 k-point  1 :   0.0000 0.0000 0.0000  plane waves:    5429
 k-point  2 :   0.1667-0.0000-0.0000  plane waves:    5415
 k-point  3 :   0.3333-0.0000-0.0000  plane waves:    5407
 k-point  4 :   0.5000-0.0000-0.0000  plane waves:    5420
 k-point  5 :   0.0000 0.1667 0.0000  plane waves:    5422
 k-point  6 :   0.1667 0.1667 0.0000  plane waves:    5399
 k-point  7 :   0.3333 0.1667 0.0000  plane waves:    5400
 k-point  8 :   0.5000 0.1667 0.0000  plane waves:    5416
 k-point  9 :  -0.3333 0.1667 0.0000  plane waves:    5399
 k-point 10 :  -0.1667 0.1667 0.0000  plane waves:    5408
 k-point 11 :   0.0000 0.3333 0.0000  plane waves:    5401
 k-point 12 :   0.1667 0.3333 0.0000  plane waves:    5402
 k-point 13 :   0.3333 0.3333 0.0000  plane waves:    5394
 k-point 14 :   0.5000 0.3333 0.0000  plane waves:    5408
 k-point 15 :  -0.3333 0.3333-0.0000  plane waves:    5394
 k-point 16 :  -0.1667 0.3333-0.0000  plane waves:    5400
 k-point 17 :   0.0000 0.5000-0.0000  plane waves:    5386
 k-point 18 :   0.1667 0.5000-0.0000  plane waves:    5403
 k-point 19 :   0.3333 0.5000 0.0000  plane waves:    5390
 k-point 20 :   0.5000 0.5000 0.0000  plane waves:    5384
 k-point 21 :   0.0000-0.0000 0.2500  plane waves:    5422
 k-point 22 :   0.1667-0.0000 0.2500  plane waves:    5415
 k-point 23 :   0.3333-0.0000 0.2500  plane waves:    5402
 k-point 24 :   0.5000-0.0000 0.2500  plane waves:    5383
 k-point 25 :  -0.3333 0.0000 0.2500  plane waves:    5391
 k-point 26 :  -0.1667 0.0000 0.2500  plane waves:    5403
 k-point 27 :   0.0000 0.1667 0.2500  plane waves:    5419
 k-point 28 :   0.1667 0.1667 0.2500  plane waves:    5397
 k-point 29 :   0.3333 0.1667 0.2500  plane waves:    5403
 k-point 30 :   0.5000 0.1667 0.2500  plane waves:    5401
 k-point 31 :  -0.3333 0.1667 0.2500  plane waves:    5396
 k-point 32 :  -0.1667 0.1667 0.2500  plane waves:    5417
 k-point 33 :   0.0000 0.3333 0.2500  plane waves:    5391
 k-point 34 :   0.1667 0.3333 0.2500  plane waves:    5414
 k-point 35 :   0.3333 0.3333 0.2500  plane waves:    5401
 k-point 36 :   0.5000 0.3333 0.2500  plane waves:    5402
 k-point 37 :  -0.3333 0.3333 0.2500  plane waves:    5398
 k-point 38 :  -0.1667 0.3333 0.2500  plane waves:    5395
 k-point 39 :  -0.0000 0.5000 0.2500  plane waves:    5397
 k-point 40 :   0.1667 0.5000 0.2500  plane waves:    5397
 k-point 41 :   0.3333 0.5000 0.2500  plane waves:    5395
 k-point 42 :   0.5000 0.5000 0.2500  plane waves:    5394
 k-point 43 :  -0.3333 0.5000 0.2500  plane waves:    5419
 k-point 44 :  -0.1667 0.5000 0.2500  plane waves:    5405
 k-point 45 :  -0.0000-0.3333 0.2500  plane waves:    5393
 k-point 46 :   0.1667-0.3333 0.2500  plane waves:    5379
 k-point 47 :   0.3333-0.3333 0.2500  plane waves:    5394
 k-point 48 :   0.5000-0.3333 0.2500  plane waves:    5400
 k-point 49 :  -0.3333-0.3333 0.2500  plane waves:    5390
 k-point 50 :  -0.1667-0.3333 0.2500  plane waves:    5395
 k-point 51 :   0.0000-0.1667 0.2500  plane waves:    5413
 k-point 52 :   0.1667-0.1667 0.2500  plane waves:    5410
 k-point 53 :   0.3333-0.1667 0.2500  plane waves:    5402
 k-point 54 :   0.5000-0.1667 0.2500  plane waves:    5403
 k-point 55 :  -0.3333-0.1667 0.2500  plane waves:    5405
 k-point 56 :  -0.1667-0.1667 0.2500  plane waves:    5407
 k-point 57 :   0.0000-0.0000 0.5000  plane waves:    5422
 k-point 58 :   0.1667-0.0000 0.5000  plane waves:    5401
 k-point 59 :   0.3333-0.0000 0.5000  plane waves:    5390
 k-point 60 :   0.5000-0.0000 0.5000  plane waves:    5386
 k-point 61 :   0.0000 0.1667 0.5000  plane waves:    5395
 k-point 62 :   0.1667 0.1667 0.5000  plane waves:    5378
 k-point 63 :   0.3333 0.1667 0.5000  plane waves:    5396
 k-point 64 :   0.5000 0.1667 0.5000  plane waves:    5387
 k-point 65 :  -0.3333 0.1667 0.5000  plane waves:    5387
 k-point 66 :  -0.1667 0.1667 0.5000  plane waves:    5408
 k-point 67 :   0.0000 0.3333 0.5000  plane waves:    5395
 k-point 68 :   0.1667 0.3333 0.5000  plane waves:    5400
 k-point 69 :   0.3333 0.3333 0.5000  plane waves:    5397
 k-point 70 :   0.5000 0.3333 0.5000  plane waves:    5398
 k-point 71 :  -0.3333 0.3333 0.5000  plane waves:    5398
 k-point 72 :  -0.1667 0.3333 0.5000  plane waves:    5398
 k-point 73 :   0.0000 0.5000 0.5000  plane waves:    5396
 k-point 74 :   0.1667 0.5000 0.5000  plane waves:    5412
 k-point 75 :   0.3333 0.5000 0.5000  plane waves:    5408
 k-point 76 :   0.5000 0.5000 0.5000  plane waves:    5408

 maximum and minimum number of plane-waves per node :      1372     1318

 maximum number of plane-waves:      5429
 maximum index in each direction: 
   IXMAX=   11   IYMAX=   11   IZMAX=   13
   IXMIN=  -11   IYMIN=  -11   IZMIN=  -13

 WARNING: aliasing errors must be expected set NGX to  46 to avoid them
 WARNING: aliasing errors must be expected set NGY to  46 to avoid them
 WARNING: aliasing errors must be expected set NGZ to  54 to avoid them
 aliasing errors are usually negligible using standard VASP settings
 and one can safely disregard these warnings

 parallel 3D FFT for wavefunctions:
    minimum data exchange during FFTs selected (reduces bandwidth)
 parallel 3D FFT for charge:
    minimum data exchange during FFTs selected (reduces bandwidth)


 total amount of memory used by VASP on root node    83472. kBytes
========================================================================

   base      :      30000. kBytes
   nonl-proj :      30382. kBytes
   fftplans  :        673. kBytes
   grid      :       1662. kBytes
   one-center:         93. kBytes
   wavefun   :      20662. kBytes
 
 Broyden mixing: mesh for mixing (old mesh)
   NGX = 21   NGY = 21   NGZ = 27
  (NGX  = 64   NGY  = 64   NGZ  = 80)
  gives a total of  11907 points

 initial charge density was supplied:
 charge density of overlapping atoms calculated
 number of electron      76.0000000 magnetization       0.0000000
 keeping initial charge density in first step


--------------------------------------------------------------------------------------------------------


 Maximum index for augmentation-charges          411 (set IRDMAX)


--------------------------------------------------------------------------------------------------------


 First call to EWALD:  gamma=   0.303
 Maximum number of real-space cells 3x 3x 2
 Maximum number of reciprocal cells 3x 3x 3

 FEWALD executed in parallel
    FEWALD:  cpu time    0.00: real time    0.00


----------------------------------------- Iteration    1(   1)  ---------------------------------------


    POTLOK:  cpu time    0.02: real time    0.02
    SETDIJ:  cpu time    0.00: real time    0.01
     EDDAV:  cpu time    4.48: real time    4.48
 BZINTS: Fermi energy: 18.664722; 76.000000 electrons
         Band energy: 582.196776;  BLOECHL correction: -0.071487
       DOS:  cpu time    0.06: real time    0.06
    --------------------------------------------
      LOOP:  cpu time    4.56: real time    4.63

 eigenvalue-minimisations  : 14592
 total energy-change (2. order) : 0.1121929E+04  (-0.3273954E+04)
 number of electron      76.0000000 magnetization      -0.0000000
 augmentation part       76.0000000 magnetization      -0.0000000

 Free energy of the ion-electron system (eV)
  ---------------------------------------------------
  alpha Z        PSCENC =       189.69156926
  Ewald energy   TEWEN  =      -871.68695160
  -1/2 Hartree   DENC   =     -4148.27144252
  -exchange  EXHF       =         0.00000000
  -V(xc)+E(xc)   XCENC  =       184.47788812
  PAW double counting   =      4385.75833043    -4310.80712112
  entropy T*S    EENTRO =         0.00000000
  eigenvalues    EBANDS =       582.19677556
  atomic energy  EATOM  =      5110.57042958
  ---------------------------------------------------
  free energy    TOTEN  =      1121.92947771 eV

  energy without entropy =     1121.92947771  energy(sigma->0) =     1121.92947771


--------------------------------------------------------------------------------------------------------




----------------------------------------- Iteration    1(   2)  ---------------------------------------


     EDDAV:  cpu time    4.52: real time    4.52
 BZINTS: Fermi energy:  5.715806; 76.000000 electrons
         Band energy:-333.604563;  BLOECHL correction: -0.097292
       DOS:  cpu time    0.05: real time    0.06
    --------------------------------------------
      LOOP:  cpu time    4.57: real time    4.66

 eigenvalue-minimisations  : 14744
 total energy-change (2. order) :-0.9158013E+03  (-0.8787838E+03)
 number of electron      76.0000000 magnetization      -0.0000000
 augmentation part       76.0000000 magnetization      -0.0000000

 Free energy of the ion-electron system (eV)
  ---------------------------------------------------
  alpha Z        PSCENC =       189.69156926
  Ewald energy   TEWEN  =      -871.68695160
  -1/2 Hartree   DENC   =     -4148.27144252
  -exchange  EXHF       =         0.00000000
  -V(xc)+E(xc)   XCENC  =       184.47788812
  PAW double counting   =      4385.75833043    -4310.80712112
  entropy T*S    EENTRO =         0.00000000
  eigenvalues    EBANDS =      -333.60456301
  atomic energy  EATOM  =      5110.57042958
  ---------------------------------------------------
  free energy    TOTEN  =       206.12813915 eV

  energy without entropy =      206.12813915  energy(sigma->0) =      206.12813915


--------------------------------------------------------------------------------------------------------




----------------------------------------- Iteration    1(   3)  ---------------------------------------


     EDDAV:  cpu time    6.46: real time    6.46
 BZINTS: Fermi energy:  1.920117; 76.000000 electrons
         Band energy:-624.251890;  BLOECHL correction:  0.000000
       DOS:  cpu time    0.02: real time    0.02
    --------------------------------------------
      LOOP:  cpu time    6.48: real time    6.57

 eigenvalue-minimisations  : 23688
 total energy-change (2. order) :-0.2906473E+03  (-0.2772074E+03)
 number of electron      76.0000000 magnetization      -0.0000000
 augmentation part       76.0000000 magnetization      -0.0000000

 Free energy of the ion-electron system (eV)
  ---------------------------------------------------
  alpha Z        PSCENC =       189.69156926
  Ewald energy   TEWEN  =      -871.68695160
  -1/2 Hartree   DENC   =     -4148.27144252
  -exchange  EXHF       =         0.00000000
  -V(xc)+E(xc)   XCENC  =       184.47788812
  PAW double counting   =      4385.75833043    -4310.80712112
  entropy T*S    EENTRO =         0.00000000
  eigenvalues    EBANDS =      -624.25189048
  atomic energy  EATOM  =      5110.57042958
  ---------------------------------------------------
  free energy    TOTEN  =       -84.51918832 eV

  energy without entropy =      -84.51918832  energy(sigma->0) =      -84.51918832


--------------------------------------------------------------------------------------------------------




----------------------------------------- Iteration    1(   4)  ---------------------------------------


     EDDAV:  cpu time    6.27: real time    6.27
 BZINTS: Fermi energy:  0.429997; 76.000000 electrons
         Band energy:-655.001791;  BLOECHL correction:  0.000000
       DOS:  cpu time    0.01: real time    0.01
    --------------------------------------------
      LOOP:  cpu time    6.28: real time    6.39

 eigenvalue-minimisations  : 23120
 total energy-change (2. order) :-0.3074990E+02  (-0.3029503E+02)
 number of electron      76.0000000 magnetization      -0.0000000
 augmentation part       76.0000000 magnetization      -0.0000000

 Free energy of the ion-electron system (eV)
  ---------------------------------------------------
  alpha Z        PSCENC =       189.69156926
  Ewald energy   TEWEN  =      -871.68695160
  -1/2 Hartree   DENC   =     -4148.27144252
  -exchange  EXHF       =         0.00000000
  -V(xc)+E(xc)   XCENC  =       184.47788812
  PAW double counting   =      4385.75833043    -4310.80712112
  entropy T*S    EENTRO =         0.00000000
  eigenvalues    EBANDS =      -655.00179087
  atomic energy  EATOM  =      5110.57042958
  ---------------------------------------------------
  free energy    TOTEN  =      -115.26908871 eV

  energy without entropy =     -115.26908871  energy(sigma->0) =     -115.26908871


--------------------------------------------------------------------------------------------------------




----------------------------------------- Iteration    1(   5)  ---------------------------------------


     EDDAV:  cpu time    6.22: real time    6.22
 BZINTS: Fermi energy:  0.409167; 76.000000 electrons
         Band energy:-655.769262;  BLOECHL correction:  0.000000
       DOS:  cpu time    0.01: real time    0.01
    CHARGE:  cpu time    0.20: real time    0.20
    MIXING:  cpu time    0.00: real time    0.00
    --------------------------------------------
      LOOP:  cpu time    6.43: real time    6.52

 eigenvalue-minimisations  : 22832
 total energy-change (2. order) :-0.7674712E+00  (-0.7640297E+00)
 number of electron      76.0000153 magnetization       0.0000000
 augmentation part       15.0325508 magnetization       0.0000000

 Broyden mixing:
  rms(total) = 0.55681E+01    rms(broyden)= 0.55678E+01
  rms(prec ) = 0.73690E+01
  weight for this iteration     100.00

 Free energy of the ion-electron system (eV)
  ---------------------------------------------------
  alpha Z        PSCENC =       189.69156926
  Ewald energy   TEWEN  =      -871.68695160
  -1/2 Hartree   DENC   =     -4148.27144252
  -exchange  EXHF       =         0.00000000
  -V(xc)+E(xc)   XCENC  =       184.47788812
  PAW double counting   =      4385.75833043    -4310.80712112
  entropy T*S    EENTRO =         0.00000000
  eigenvalues    EBANDS =      -655.76926207
  atomic energy  EATOM  =      5110.57042958
  ---------------------------------------------------
  free energy    TOTEN  =      -116.03655991 eV

  energy without entropy =     -116.03655991  energy(sigma->0) =     -116.03655991


--------------------------------------------------------------------------------------------------------




----------------------------------------- Iteration    1(   6)  ---------------------------------------


    POTLOK:  cpu time    0.02: real time    0.02
    SETDIJ:  cpu time    0.00: real time    0.01
     EDDAV:  cpu time    6.44: real time    6.45
 BZINTS: Fermi energy: -1.474874; 76.000000 electrons
         Band energy:-637.591278;  BLOECHL correction: -0.036895
       DOS:  cpu time    0.06: real time    0.06
    CHARGE:  cpu time    0.20: real time    0.20
    MIXING:  cpu time    0.00: real time    0.00
    --------------------------------------------
      LOOP:  cpu time    6.73: real time    6.83

 eigenvalue-minimisations  : 23840
 total energy-change (2. order) : 0.1439377E+02  (-0.3494420E+02)
 number of electron      76.0000063 magnetization       0.0000000
 augmentation part       21.3389590 magnetization       0.0000000

 Broyden mixing:
  rms(total) = 0.68724E+01    rms(broyden)= 0.68720E+01
  rms(prec ) = 0.85855E+01
  weight for this iteration     100.00

 eigenvalues of (default mixing * dielectric matrix)
  average eigenvalue GAMMA=   0.2443
  0.2443

 Free energy of the ion-electron system (eV)
  ---------------------------------------------------
  alpha Z        PSCENC =       189.69156926
  Ewald energy   TEWEN  =      -871.68695160
  -1/2 Hartree   DENC   =     -4173.13901982
  -exchange  EXHF       =         0.00000000
  -V(xc)+E(xc)   XCENC  =       193.12132231
  PAW double counting   =      5171.30104919    -5083.90991174
  entropy T*S    EENTRO =         0.00000000
  eigenvalues    EBANDS =      -637.59127830
  atomic energy  EATOM  =      5110.57042958
  ---------------------------------------------------
  free energy    TOTEN  =      -101.64279113 eV

  energy without entropy =     -101.64279113  energy(sigma->0) =     -101.64279113


--------------------------------------------------------------------------------------------------------




----------------------------------------- Iteration    1(   7)  ---------------------------------------


    POTLOK:  cpu time    0.02: real time    0.02
    SETDIJ:  cpu time    0.00: real time    0.01
     EDDAV:  cpu time    7.13: real time    7.13
 BZINTS: Fermi energy: -2.069914; 76.000000 electrons
         Band energy:-603.673704;  BLOECHL correction:  0.000000
       DOS:  cpu time    0.01: real time    0.01
    CHARGE:  cpu time    0.20: real time    0.20
    MIXING:  cpu time    0.00: real time    0.00
    --------------------------------------------
      LOOP:  cpu time    7.36: real time    7.47

 eigenvalue-minimisations  : 26744
 total energy-change (2. order) : 0.1228644E+02  (-0.1690788E+02)
 number of electron      76.0000117 magnetization       0.0000000
 augmentation part       16.2991561 magnetization       0.0000000

 Broyden mixing:
  rms(total) = 0.25488E+01    rms(broyden)= 0.25486E+01
  rms(prec ) = 0.28325E+01
  weight for this iteration     100.00

 eigenvalues of (default mixing * dielectric matrix)
  average eigenvalue GAMMA=   0.6083
  0.8732  0.3433

 Free energy of the ion-electron system (eV)
  ---------------------------------------------------
  alpha Z        PSCENC =       189.69156926
  Ewald energy   TEWEN  =      -871.68695160
  -1/2 Hartree   DENC   =     -4174.80389126
  -exchange  EXHF       =         0.00000000
  -V(xc)+E(xc)   XCENC  =       188.20519105
  PAW double counting   =      5464.31779777    -5391.97679185
  entropy T*S    EENTRO =         0.00000000
  eigenvalues    EBANDS =      -603.67370379
  atomic energy  EATOM  =      5110.57042958
  ---------------------------------------------------
  free energy    TOTEN  =       -89.35635084 eV

  energy without entropy =      -89.35635084  energy(sigma->0) =      -89.35635084


--------------------------------------------------------------------------------------------------------




----------------------------------------- Iteration    1(   8)  ---------------------------------------


    POTLOK:  cpu time    0.02: real time    0.02
    SETDIJ:  cpu time    0.00: real time    0.01
     EDDAV:  cpu time    6.67: real time    6.67
 BZINTS: Fermi energy: -2.563916; 76.000000 electrons
         Band energy:-623.402948;  BLOECHL correction:  0.000000
       DOS:  cpu time    0.01: real time    0.01
    CHARGE:  cpu time    0.20: real time    0.20
    MIXING:  cpu time    0.00: real time    0.00
    --------------------------------------------
      LOOP:  cpu time    6.91: real time    7.00

 eigenvalue-minimisations  : 24864
 total energy-change (2. order) : 0.1509365E+00  (-0.1124241E+01)
 number of electron      76.0000117 magnetization       0.0000000
 augmentation part       17.0056172 magnetization       0.0000000

 Broyden mixing:
  rms(total) = 0.12001E+01    rms(broyden)= 0.12001E+01
  rms(prec ) = 0.13485E+01
  weight for this iteration     100.00

 eigenvalues of (default mixing * dielectric matrix)
  average eigenvalue GAMMA=   0.8912
  1.6472  0.6596  0.3669

 Free energy of the ion-electron system (eV)
  ---------------------------------------------------
  alpha Z        PSCENC =       189.69156926
  Ewald energy   TEWEN  =      -871.68695160
  -1/2 Hartree   DENC   =     -4155.11677581
  -exchange  EXHF       =         0.00000000
  -V(xc)+E(xc)   XCENC  =       189.25292969
  PAW double counting   =      5883.78273085    -5812.29639842
  entropy T*S    EENTRO =         0.00000000
  eigenvalues    EBANDS =      -623.40294787
  atomic energy  EATOM  =      5110.57042958
  ---------------------------------------------------
  free energy    TOTEN  =       -89.20541431 eV

  energy without entropy =      -89.20541431  energy(sigma->0) =      -89.20541431


--------------------------------------------------------------------------------------------------------




----------------------------------------- Iteration    1(   9)  ---------------------------------------


    POTLOK:  cpu time    0.02: real time    0.02
    SETDIJ:  cpu time    0.01: real time    0.01
     EDDAV:  cpu time    7.32: real time    7.32
 BZINTS: Fermi energy: -2.351062; 76.000000 electrons
         Band energy:-624.857708;  BLOECHL correction:  0.000000
       DOS:  cpu time    0.01: real time    0.01
    CHARGE:  cpu time    0.20: real time    0.20
    MIXING:  cpu time    0.00: real time    0.00
    --------------------------------------------
      LOOP:  cpu time    7.56: real time    7.65

 eigenvalue-minimisations  : 27624
 total energy-change (2. order) :-0.3735647E-02  (-0.2795267E+00)
 number of electron      76.0000107 magnetization      -0.0000000
 augmentation part       17.7289348 magnetization      -0.0000000

 Broyden mixing:
  rms(total) = 0.83698E+00    rms(broyden)= 0.83693E+00
  rms(prec ) = 0.96625E+00
  weight for this iteration     100.00

 eigenvalues of (default mixing * dielectric matrix)
  average eigenvalue GAMMA=   1.0796
  2.1412  1.1934  0.3895  0.5940

 Free energy of the ion-electron system (eV)
  ---------------------------------------------------
  alpha Z        PSCENC =       189.69156926
  Ewald energy   TEWEN  =      -871.68695160
  -1/2 Hartree   DENC   =     -4154.32784628
  -exchange  EXHF       =         0.00000000
  -V(xc)+E(xc)   XCENC  =       191.52164540
  PAW double counting   =      6281.88293029    -6212.00321831
  entropy T*S    EENTRO =         0.00000000
  eigenvalues    EBANDS =      -624.85770830
  atomic energy  EATOM  =      5110.57042958
  ---------------------------------------------------
  free energy    TOTEN  =       -89.20914996 eV

  energy without entropy =      -89.20914996  energy(sigma->0) =      -89.20914996


--------------------------------------------------------------------------------------------------------




----------------------------------------- Iteration    1(  10)  ---------------------------------------


    POTLOK:  cpu time    0.02: real time    0.02
    SETDIJ:  cpu time    0.00: real time    0.01
     EDDAV:  cpu time    6.80: real time    6.80
 BZINTS: Fermi energy: -2.355874; 76.000000 electrons
         Band energy:-618.108823;  BLOECHL correction:  0.000000
       DOS:  cpu time    0.01: real time    0.01
    CHARGE:  cpu time    0.20: real time    0.20
    MIXING:  cpu time    0.00: real time    0.00
    --------------------------------------------
      LOOP:  cpu time    7.04: real time    7.13

 eigenvalue-minimisations  : 25376
 total energy-change (2. order) : 0.2111680E+00  (-0.1545712E+00)
 number of electron      76.0000111 magnetization      -0.0000000
 augmentation part       17.3624852 magnetization      -0.0000000

 Broyden mixing:
  rms(total) = 0.28279E+00    rms(broyden)= 0.28277E+00
  rms(prec ) = 0.28679E+00
  weight for this iteration     100.00

 eigenvalues of (default mixing * dielectric matrix)
  average eigenvalue GAMMA=   0.9963
  2.1961  0.3888  0.8354  0.7807  0.7807

 Free energy of the ion-electron system (eV)
  ---------------------------------------------------
  alpha Z        PSCENC =       189.69156926
  Ewald energy   TEWEN  =      -871.68695160
  -1/2 Hartree   DENC   =     -4159.26050193
  -exchange  EXHF       =         0.00000000
  -V(xc)+E(xc)   XCENC  =       192.29333172
  PAW double counting   =      6472.43699240    -6404.93402795
  entropy T*S    EENTRO =         0.00000000
  eigenvalues    EBANDS =      -618.10882343
  atomic energy  EATOM  =      5110.57042958
  ---------------------------------------------------
  free energy    TOTEN  =       -88.99798194 eV

  energy without entropy =      -88.99798194  energy(sigma->0) =      -88.99798194


--------------------------------------------------------------------------------------------------------




----------------------------------------- Iteration    1(  11)  ---------------------------------------


    POTLOK:  cpu time    0.02: real time    0.02
    SETDIJ:  cpu time    0.00: real time    0.01
     EDDAV:  cpu time    6.83: real time    6.84
 BZINTS: Fermi energy: -2.335651; 76.000000 electrons
         Band energy:-616.105353;  BLOECHL correction:  0.000000
       DOS:  cpu time    0.01: real time    0.01
    CHARGE:  cpu time    0.20: real time    0.20
    MIXING:  cpu time    0.00: real time    0.00
    --------------------------------------------
      LOOP:  cpu time    7.07: real time    7.28

 eigenvalue-minimisations  : 25352
 total energy-change (2. order) :-0.3000337E-01  (-0.6401205E-02)
 number of electron      76.0000111 magnetization      -0.0000000
 augmentation part       17.3649492 magnetization      -0.0000000

 Broyden mixing:
  rms(total) = 0.73901E-01    rms(broyden)= 0.73899E-01
  rms(prec ) = 0.90974E-01
  weight for this iteration     100.00

 eigenvalues of (default mixing * dielectric matrix)
  average eigenvalue GAMMA=   1.0562
  2.1149  1.3133  1.3133  0.3903  0.6028  0.6028

 Free energy of the ion-electron system (eV)
  ---------------------------------------------------
  alpha Z        PSCENC =       189.69156926
  Ewald energy   TEWEN  =      -871.68695160
  -1/2 Hartree   DENC   =     -4160.10393766
  -exchange  EXHF       =         0.00000000
  -V(xc)+E(xc)   XCENC  =       191.68529759
  PAW double counting   =      6490.17430048    -6423.25334030
  entropy T*S    EENTRO =         0.00000000
  eigenvalues    EBANDS =      -616.10535266
  atomic energy  EATOM  =      5110.57042958
  ---------------------------------------------------
  free energy    TOTEN  =       -89.02798531 eV

  energy without entropy =      -89.02798531  energy(sigma->0) =      -89.02798531


--------------------------------------------------------------------------------------------------------




----------------------------------------- Iteration    1(  12)  ---------------------------------------


    POTLOK:  cpu time    0.02: real time    0.02
    SETDIJ:  cpu time    0.01: real time    0.01
     EDDAV:  cpu time    6.96: real time    6.96
 BZINTS: Fermi energy: -2.368750; 76.000000 electrons
         Band energy:-615.208972;  BLOECHL correction:  0.000000
       DOS:  cpu time    0.01: real time    0.01
    CHARGE:  cpu time    0.20: real time    0.20
    MIXING:  cpu time    0.00: real time    0.00
    --------------------------------------------
      LOOP:  cpu time    7.20: real time    7.42

 eigenvalue-minimisations  : 26016
 total energy-change (2. order) :-0.1350410E-02  (-0.8304694E-03)
 number of electron      76.0000111 magnetization      -0.0000000
 augmentation part       17.3344562 magnetization      -0.0000000

 Broyden mixing:
  rms(total) = 0.36204E-01    rms(broyden)= 0.36194E-01
  rms(prec ) = 0.39094E-01
  weight for this iteration     100.00

 eigenvalues of (default mixing * dielectric matrix)
  average eigenvalue GAMMA=   1.0287
  2.2423  1.2883  1.0289  1.0289  0.3900  0.6113  0.6113

 Free energy of the ion-electron system (eV)
  ---------------------------------------------------
  alpha Z        PSCENC =       189.69156926
  Ewald energy   TEWEN  =      -871.68695160
  -1/2 Hartree   DENC   =     -4160.91661407
  -exchange  EXHF       =         0.00000000
  -V(xc)+E(xc)   XCENC  =       191.51227614
  PAW double counting   =      6490.45246348    -6423.44353652
  entropy T*S    EENTRO =         0.00000000
  eigenvalues    EBANDS =      -615.20897199
  atomic energy  EATOM  =      5110.57042958
  ---------------------------------------------------
  free energy    TOTEN  =       -89.02933572 eV

  energy without entropy =      -89.02933572  energy(sigma->0) =      -89.02933572


--------------------------------------------------------------------------------------------------------




----------------------------------------- Iteration    1(  13)  ---------------------------------------


    POTLOK:  cpu time    0.02: real time    0.02
    SETDIJ:  cpu time    0.00: real time    0.01
     EDDAV:  cpu time    6.60: real time    6.60
 BZINTS: Fermi energy: -2.320375; 76.000000 electrons
         Band energy:-614.767788;  BLOECHL correction:  0.000000
       DOS:  cpu time    0.01: real time    0.01
    CHARGE:  cpu time    0.20: real time    0.20
    MIXING:  cpu time    0.00: real time    0.00
    --------------------------------------------
      LOOP:  cpu time    6.84: real time    6.93

 eigenvalue-minimisations  : 24408
 total energy-change (2. order) :-0.3925121E-03  (-0.2545592E-03)
 number of electron      76.0000111 magnetization       0.0000000
 augmentation part       17.3264152 magnetization       0.0000000

 Broyden mixing:
  rms(total) = 0.16463E-01    rms(broyden)= 0.16459E-01
  rms(prec ) = 0.19757E-01
  weight for this iteration     100.00

 eigenvalues of (default mixing * dielectric matrix)
  average eigenvalue GAMMA=   1.0651
  2.3036  1.5868  1.1172  1.1172  0.3900  0.7244  0.6408  0.6408

 Free energy of the ion-electron system (eV)
  ---------------------------------------------------
  alpha Z        PSCENC =       189.69156926
  Ewald energy   TEWEN  =      -871.68695160
  -1/2 Hartree   DENC   =     -4161.38723171
  -exchange  EXHF       =         0.00000000
  -V(xc)+E(xc)   XCENC  =       191.55396465
  PAW double counting   =      6496.23290478    -6429.23662476
  entropy T*S    EENTRO =         0.00000000
  eigenvalues    EBANDS =      -614.76778843
  atomic energy  EATOM  =      5110.57042958
  ---------------------------------------------------
  free energy    TOTEN  =       -89.02972823 eV

  energy without entropy =      -89.02972823  energy(sigma->0) =      -89.02972823


--------------------------------------------------------------------------------------------------------




----------------------------------------- Iteration    1(  14)  ---------------------------------------


    POTLOK:  cpu time    0.02: real time    0.02
    SETDIJ:  cpu time    0.01: real time    0.01
     EDDAV:  cpu time    5.64: real time    5.64
 BZINTS: Fermi energy: -2.333692; 76.000000 electrons
         Band energy:-613.972071;  BLOECHL correction:  0.000000
       DOS:  cpu time    0.01: real time    0.01
    --------------------------------------------
      LOOP:  cpu time    5.68: real time    5.77

 eigenvalue-minimisations  : 19968
 total energy-change (2. order) :-0.7513236E-05  (-0.9139127E-04)
 number of electron      76.0000111 magnetization       0.0000000
 augmentation part       17.3264152 magnetization       0.0000000

 Free energy of the ion-electron system (eV)
  ---------------------------------------------------
  alpha Z        PSCENC =       189.69156926
  Ewald energy   TEWEN  =      -871.68695160
  -1/2 Hartree   DENC   =     -4162.14091273
  -exchange  EXHF       =         0.00000000
  -V(xc)+E(xc)   XCENC  =       191.53174267
  PAW double counting   =      6500.60736179    -6433.63090393
  entropy T*S    EENTRO =         0.00000000
  eigenvalues    EBANDS =      -613.97207079
  atomic energy  EATOM  =      5110.57042958
  ---------------------------------------------------
  free energy    TOTEN  =       -89.02973574 eV

  energy without entropy =      -89.02973574  energy(sigma->0) =      -89.02973574


--------------------------------------------------------------------------------------------------------




 average (electrostatic) potential at core
  the test charge radii are     1.0210  0.7215
  (the norm of the test charge is              1.0000)
       1 -52.0018       2 -52.0017       3 -52.0018       4 -52.0017       5 -76.1736
       6 -76.1736       7 -76.1736       8 -76.1736       9 -76.1736      10 -76.1736
      11 -76.1736      12 -76.1736
 
 
 
 E-fermi :  -2.3337     XC(G=0):  -7.7891     alpha+bet : -6.3575


 spin component 1

 k-point   1 :       0.0000    0.0000    0.0000
  band No.  band energies     occupation 
      1     -20.6610      1.00000
      2     -19.0986      1.00000
      3     -19.0937      1.00000
      4     -19.0920      1.00000
      5     -18.9473      1.00000
      6     -18.9262      1.00000
      7     -18.9102      1.00000
      8     -18.5266      1.00000
      9      -8.6313      1.00000
     10      -8.4366      1.00000
     11      -8.0000      1.00000
     12      -7.5504      1.00000
     13      -7.1282      1.00000
     14      -6.9217      1.00000
     15      -6.4513      1.00000
     16      -6.4255      1.00000
     17      -6.1854      1.00000
     18      -5.8844      1.00000
     19      -5.8807      1.00000
     20      -5.8717      1.00000
     21      -5.7867      1.00000
     22      -5.0904      1.00000
     23      -4.9288      1.00000
     24      -4.7839      1.00000
     25      -4.6441      1.00000
     26      -4.3384      1.00000
     27      -4.1513      1.00000
     28      -4.1279      1.00000
     29      -4.1015      1.00000
     30      -3.4923      1.00000
     31      -3.4335      1.00000
     32      -3.3710      1.00000
     33      -3.3107      1.00000
     34      -3.2880      1.00000
     35      -3.2292      1.00000
     36      -2.9626      1.00000
     37      -2.6653      1.00000
     38      -2.6574      1.00000
     39      -0.1297      0.00000
     40       0.2604      0.00000
     41       0.4393      0.00000
     42       0.5615      0.00000
     43       0.9670      0.00000
     44       1.4969      0.00000
     45       1.7121      0.00000
     46       1.7369      0.00000
     47       1.9588      0.00000
     48       2.0522      0.00000

 k-point   2 :       0.1667   -0.0000   -0.0000
  band No.  band energies     occupation 
      1     -20.5745      1.00000
      2     -19.2568      1.00000
      3     -19.1336      1.00000
      4     -19.1033      1.00000
      5     -18.9074      1.00000
      6     -18.9008      1.00000
      7     -18.8620      1.00000
      8     -18.5445      1.00000
      9      -8.5272      1.00000
     10      -8.3303      1.00000
     11      -7.9049      1.00000
     12      -7.4871      1.00000
     13      -7.0806      1.00000
     14      -6.9310      1.00000
     15      -6.6232      1.00000
     16      -6.3856      1.00000
     17      -6.2165      1.00000
     18      -6.1275      1.00000
     19      -6.0019      1.00000
     20      -5.6737      1.00000
     21      -5.6124      1.00000
     22      -4.9925      1.00000
     23      -4.9762      1.00000
     24      -4.8846      1.00000
     25      -4.8080      1.00000
     26      -4.5871      1.00000
     27      -4.4152      1.00000
     28      -4.2910      1.00000
     29      -3.8646      1.00000
     30      -3.5767      1.00000
     31      -3.4373      1.00000
     32      -3.2753      1.00000
     33      -3.2061      1.00000
     34      -3.1235      1.00000
     35      -3.0611      1.00000
     36      -2.8662      1.00000
     37      -2.7782      1.00000
     38      -2.7281      1.00000
     39      -0.0099      0.00000
     40       0.4014      0.00000
     41       0.4321      0.00000
     42       0.4505      0.00000
     43       0.9621      0.00000
     44       1.4759      0.00000
     45       1.6597      0.00000
     46       1.7054      0.00000
     47       1.9615      0.00000
     48       1.9721      0.00000

 k-point   3 :       0.3333   -0.0000   -0.0000
  band No.  band energies     occupation 
      1     -20.3307      1.00000
      2     -19.5849      1.00000
      3     -19.1875      1.00000
      4     -19.1225      1.00000
      5     -18.8848      1.00000
      6     -18.8541      1.00000
      7     -18.7790      1.00000
      8     -18.5925      1.00000
      9      -8.2806      1.00000
     10      -8.1626      1.00000
     11      -7.7438      1.00000
     12      -7.3453      1.00000
     13      -6.9774      1.00000
     14      -6.7871      1.00000
     15      -6.6411      1.00000
     16      -6.4298      1.00000
     17      -6.2582      1.00000
     18      -6.2401      1.00000
     19      -6.1856      1.00000
     20      -5.6085      1.00000
     21      -5.5937      1.00000
     22      -5.4526      1.00000
     23      -5.2740      1.00000
     24      -5.1582      1.00000
     25      -4.7705      1.00000
     26      -4.6535      1.00000
     27      -4.5384      1.00000
     28      -4.4303      1.00000
     29      -3.7717      1.00000
     30      -3.5881      1.00000
     31      -3.5768      1.00000
     32      -3.4568      1.00000
     33      -3.1571      1.00000
     34      -2.8933      1.00000
     35      -2.8373      1.00000
     36      -2.7545      1.00000
     37      -2.6483      1.00000
     38      -2.5025      1.00000
     39       0.1500      0.00000
     40       0.2653      0.00000
     41       0.3560      0.00000
     42       0.7348      0.00000
     43       0.9425      0.00000
     44       1.4020      0.00000
     45       1.4897      0.00000
     46       1.7183      0.00000
     47       1.7208      0.00000
     48       2.0013      0.00000

 k-point   4 :       0.5000   -0.0000   -0.0000
  band No.  band energies     occupation 
      1     -19.9947      1.00000
      2     -19.9554      1.00000
      3     -19.2087      1.00000
      4     -19.1311      1.00000
      5     -18.8777      1.00000
      6     -18.8331      1.00000
      7     -18.7253      1.00000
      8     -18.6361      1.00000
      9      -8.1259      1.00000
     10      -8.1110      1.00000
     11      -7.6988      1.00000
     12      -7.2742      1.00000
     13      -6.9221      1.00000
     14      -6.5835      1.00000
     15      -6.5511      1.00000
     16      -6.3354      1.00000
     17      -6.2636      1.00000
     18      -6.2132      1.00000
     19      -6.1092      1.00000
     20      -6.0140      1.00000
     21      -5.7423      1.00000
     22      -5.6883      1.00000
     23      -5.5093      1.00000
     24      -5.3942      1.00000
     25      -4.6743      1.00000
     26      -4.6041      1.00000
     27      -4.5795      1.00000
     28      -4.2525      1.00000
     29      -3.9364      1.00000
     30      -3.8580      1.00000
     31      -3.4944      1.00000
     32      -3.4760      1.00000
     33      -3.1302      1.00000
     34      -2.8810      1.00000
     35      -2.7465      1.00000
     36      -2.6350      1.00000
     37      -2.4414      1.00000
     38      -2.3630      1.00000
     39      -0.0499      0.00000
     40       0.2921      0.00000
     41       0.4427      0.00000
     42       0.9282      0.00000
     43       0.9866      0.00000
     44       1.2910      0.00000
     45       1.4324      0.00000
     46       1.5070      0.00000
     47       1.7387      0.00000
     48       2.0051      0.00000

 k-point   5 :       0.0000    0.1667    0.0000
  band No.  band energies     occupation 
      1     -20.5744      1.00000
      2     -19.2545      1.00000
      3     -19.1209      1.00000
      4     -19.1173      1.00000
      5     -18.9054      1.00000
      6     -18.9047      1.00000
      7     -18.8599      1.00000
      8     -18.5461      1.00000
      9      -8.4922      1.00000
     10      -8.3124      1.00000
     11      -7.8672      1.00000
     12      -7.4712      1.00000
     13      -7.1685      1.00000
     14      -6.8819      1.00000
     15      -6.6738      1.00000
     16      -6.5618      1.00000
     17      -6.2789      1.00000
     18      -6.1216      1.00000
     19      -6.0551      1.00000
     20      -5.6197      1.00000
     21      -5.4742      1.00000
     22      -5.0673      1.00000
     23      -5.0206      1.00000
     24      -4.8372      1.00000
     25      -4.8083      1.00000
     26      -4.4527      1.00000
     27      -4.2447      1.00000
     28      -4.1108      1.00000
     29      -4.0111      1.00000
     30      -3.6202      1.00000
     31      -3.4578      1.00000
     32      -3.3868      1.00000
     33      -3.2429      1.00000
     34      -3.1420      1.00000
     35      -3.0225      1.00000
     36      -2.8671      1.00000
     37      -2.8040      1.00000
     38      -2.6659      1.00000
     39      -0.1119      0.00000
     40       0.2365      0.00000
     41       0.4575      0.00000
     42       0.5457      0.00000
     43       1.0948      0.00000
     44       1.5335      0.00000
     45       1.6775      0.00000
     46       1.7140      0.00000
     47       1.9316      0.00000
     48       1.9564      0.00000

 k-point   6 :       0.1667    0.1667    0.0000
  band No.  band energies     occupation 
      1     -20.4091      1.00000
      2     -19.3744      1.00000
      3     -19.3742      1.00000
      4     -19.0099      1.00000
      5     -18.9312      1.00000
      6     -18.8241      1.00000
      7     -18.8200      1.00000
      8     -18.5799      1.00000
      9      -8.3209      1.00000
     10      -8.1489      1.00000
     11      -7.7229      1.00000
     12      -7.3629      1.00000
     13      -7.1235      1.00000
     14      -6.8176      1.00000
     15      -6.7577      1.00000
     16      -6.6399      1.00000
     17      -6.3440      1.00000
     18      -6.2519      1.00000
     19      -5.9110      1.00000
     20      -5.7746      1.00000
     21      -5.3611      1.00000
     22      -5.3226      1.00000
     23      -5.1438      1.00000
     24      -4.9199      1.00000
     25      -4.7495      1.00000
     26      -4.6835      1.00000
     27      -4.5433      1.00000
     28      -4.3221      1.00000
     29      -3.9624      1.00000
     30      -3.6179      1.00000
     31      -3.4023      1.00000
     32      -3.2907      1.00000
     33      -3.2423      1.00000
     34      -3.0805      1.00000
     35      -2.8581      1.00000
     36      -2.7662      1.00000
     37      -2.7171      1.00000
     38      -2.5677      1.00000
     39       0.0030      0.00000
     40       0.2466      0.00000
     41       0.4955      0.00000
     42       0.5468      0.00000
     43       1.0929      0.00000
     44       1.5025      0.00000
     45       1.5830      0.00000
     46       1.6913      0.00000
     47       1.7886      0.00000
     48       1.9587      0.00000

 k-point   7 :       0.3333    0.1667    0.0000
  band No.  band energies     occupation 
      1     -20.1096      1.00000
      2     -19.7339      1.00000
      3     -19.4435      1.00000
      4     -18.9880      1.00000
      5     -18.9085      1.00000
      6     -18.7941      1.00000
      7     -18.7499      1.00000
      8     -18.6345      1.00000
      9      -8.1080      1.00000
     10      -8.0436      1.00000
     11      -7.6371      1.00000
     12      -7.2468      1.00000
     13      -7.0311      1.00000
     14      -6.6270      1.00000
     15      -6.6193      1.00000
     16      -6.4935      1.00000
     17      -6.4911      1.00000
     18      -6.3399      1.00000
     19      -5.9619      1.00000
     20      -5.9398      1.00000
     21      -5.6845      1.00000
     22      -5.6653      1.00000
     23      -5.3127      1.00000
     24      -5.1333      1.00000
     25      -4.6511      1.00000
     26      -4.6297      1.00000
     27      -4.6274      1.00000
     28      -4.2642      1.00000
     29      -4.1587      1.00000
     30      -3.7817      1.00000
     31      -3.5085      1.00000
     32      -3.2789      1.00000
     33      -3.1375      1.00000
     34      -3.0379      1.00000
     35      -2.8024      1.00000
     36      -2.5627      1.00000
     37      -2.4901      1.00000
     38      -2.3722      1.00000
     39       0.0775      0.00000
     40       0.2332      0.00000
     41       0.4214      0.00000
     42       0.7480      0.00000
     43       1.0844      0.00000
     44       1.3831      0.00000
     45       1.5037      0.00000
     46       1.5480      0.00000
     47       1.7216      0.00000
     48       1.9803      0.00000

 k-point   8 :       0.5000    0.1667    0.0000
  band No.  band energies     occupation 
      1     -20.1094      1.00000
      2     -19.7343      1.00000
      3     -19.4435      1.00000
      4     -18.9876      1.00000
      5     -18.9092      1.00000
      6     -18.7939      1.00000
      7     -18.7498      1.00000
      8     -18.6345      1.00000
      9      -8.1080      1.00000
     10      -8.0434      1.00000
     11      -7.6370      1.00000
     12      -7.2469      1.00000
     13      -7.0308      1.00000
     14      -6.6272      1.00000
     15      -6.6201      1.00000
     16      -6.4932      1.00000
     17      -6.4913      1.00000
     18      -6.3397      1.00000
     19      -5.9618      1.00000
     20      -5.9402      1.00000
     21      -5.6836      1.00000
     22      -5.6650      1.00000
     23      -5.3136      1.00000
     24      -5.1339      1.00000
     25      -4.6505      1.00000
     26      -4.6292      1.00000
     27      -4.6277      1.00000
     28      -4.2633      1.00000
     29      -4.1556      1.00000
     30      -3.7838      1.00000
     31      -3.5102      1.00000
     32      -3.2781      1.00000
     33      -3.1374      1.00000
     34      -3.0394      1.00000
     35      -2.8027      1.00000
     36      -2.5613      1.00000
     37      -2.4887      1.00000
     38      -2.3740      1.00000
     39       0.0769      0.00000
     40       0.2251      0.00000
     41       0.4280      0.00000
     42       0.7482      0.00000
     43       1.0847      0.00000
     44       1.3824      0.00000
     45       1.5031      0.00000
     46       1.5482      0.00000
     47       1.7208      0.00000
     48       1.9795      0.00000

[...]
     10      -7.7263      1.00000
     11      -7.6415      1.00000
     12      -7.6302      1.00000
     13      -6.9974      1.00000
     14      -6.9775      1.00000
     15      -6.8993      1.00000
     16      -6.8121      1.00000
     17      -6.5964      1.00000
     18      -6.4219      1.00000
     19      -5.9161      1.00000
     20      -5.8357      1.00000
     21      -5.6364      1.00000
     22      -5.3387      1.00000
     23      -5.1786      1.00000
     24      -4.7689      1.00000
     25      -4.6994      1.00000
     26      -4.6860      1.00000
     27      -4.4125      1.00000
     28      -4.2498      1.00000
     29      -4.0203      1.00000
     30      -3.9159      1.00000
     31      -3.7041      1.00000
     32      -3.2797      1.00000
     33      -3.1355      1.00000
     34      -3.0058      1.00000
     35      -2.8518      1.00000
     36      -2.5982      1.00000
     37      -2.4808      1.00000
     38      -2.3987      1.00000
     39      -0.0323      0.00000
     40       0.0285      0.00000
     41       0.4662      0.00000
     42       0.5187      0.00000
     43       1.5188      0.00000
     44       1.5759      0.00000
     45       1.5899      0.00000
     46       1.6885      0.00000
     47       1.7079      0.00000
     48       1.8081      0.00000

 k-point  75 :       0.3333    0.5000    0.5000
  band No.  band energies     occupation 
      1     -20.1078      1.00000
      2     -19.7336      1.00000
      3     -19.4415      1.00000
      4     -18.9911      1.00000
      5     -18.9063      1.00000
      6     -18.8020      1.00000
      7     -18.7295      1.00000
      8     -18.6514      1.00000
      9      -7.7526      1.00000
     10      -7.7254      1.00000
     11      -7.6420      1.00000
     12      -7.6303      1.00000
     13      -6.9955      1.00000
     14      -6.9791      1.00000
     15      -6.8978      1.00000
     16      -6.8134      1.00000
     17      -6.5978      1.00000
     18      -6.4236      1.00000
     19      -5.9159      1.00000
     20      -5.8355      1.00000
     21      -5.6347      1.00000
     22      -5.3390      1.00000
     23      -5.1774      1.00000
     24      -4.7696      1.00000
     25      -4.6995      1.00000
     26      -4.6860      1.00000
     27      -4.4110      1.00000
     28      -4.2493      1.00000
     29      -4.0200      1.00000
     30      -3.9156      1.00000
     31      -3.7056      1.00000
     32      -3.2810      1.00000
     33      -3.1356      1.00000
     34      -3.0065      1.00000
     35      -2.8539      1.00000
     36      -2.6010      1.00000
     37      -2.4780      1.00000
     38      -2.3973      1.00000
     39      -0.0297      0.00000
     40       0.0303      0.00000
     41       0.4645      0.00000
     42       0.5179      0.00000
     43       1.5200      0.00000
     44       1.5749      0.00000
     45       1.5892      0.00000
     46       1.6843      0.00000
     47       1.7149      0.00000
     48       1.8104      0.00000

 k-point  76 :       0.5000    0.5000    0.5000
  band No.  band energies     occupation 
      1     -19.9739      1.00000
      2     -19.9738      1.00000
      3     -19.1708      1.00000
      4     -19.1708      1.00000
      5     -18.8566      1.00000
      6     -18.8566      1.00000
      7     -18.6805      1.00000
      8     -18.6805      1.00000
      9      -7.7291      1.00000
     10      -7.7291      1.00000
     11      -7.6048      1.00000
     12      -7.6048      1.00000
     13      -7.0551      1.00000
     14      -7.0551      1.00000
     15      -6.9071      1.00000
     16      -6.9071      1.00000
     17      -6.4659      1.00000
     18      -6.4659      1.00000
     19      -5.8046      1.00000
     20      -5.8046      1.00000
     21      -5.4938      1.00000
     22      -5.4938      1.00000
     23      -5.0589      1.00000
     24      -5.0589      1.00000
     25      -4.5956      1.00000
     26      -4.5956      1.00000
     27      -4.4319      1.00000
     28      -4.4319      1.00000
     29      -4.0174      1.00000
     30      -4.0174      1.00000
     31      -3.3949      1.00000
     32      -3.3949      1.00000
     33      -3.0887      1.00000
     34      -3.0887      1.00000
     35      -2.6879      1.00000
     36      -2.6879      1.00000
     37      -2.4018      1.00000
     38      -2.4018      1.00000
     39      -0.1927      0.00000
     40      -0.1927      0.00000
     41       0.6427      0.00000
     42       0.6427      0.00000
     43       1.5742      0.00000
     44       1.5743      0.00000
     45       1.6182      0.00000
     46       1.6182      0.00000
     47       1.7520      0.00000
     48       1.7520      0.00000


--------------------------------------------------------------------------------------------------------


 soft charge-density along one line, spin component           1
         0         1         2         3         4         5         6         7         8         9
 total charge-density along one line
 
 soft charge-density along one line, spin component           2
         0         1         2         3         4         5         6         7         8         9
 total charge-density along one line
 
 pseudopotential strength for first ion, spin component:           1
-12.320  -0.029   0.017  -0.822  -0.030 -12.818  -0.029   0.018
 -0.029 -11.990  -0.002  -0.000  -0.849  -0.029 -12.483  -0.002
  0.017  -0.002 -12.940  -0.008   0.007   0.018  -0.002 -13.456
 -0.822  -0.000  -0.008 -11.997   0.075  -0.841  -0.000  -0.008
 -0.030  -0.849   0.007   0.075 -12.286  -0.030  -0.869   0.007
-12.818  -0.029   0.018  -0.841  -0.030 -13.300  -0.030   0.018
 -0.029 -12.483  -0.002  -0.000  -0.869  -0.030 -12.957  -0.003
  0.018  -0.002 -13.456  -0.008   0.007   0.018  -0.003 -13.959
 -0.841  -0.000  -0.008 -12.490   0.077  -0.866  -0.001  -0.009
 -0.030  -0.869   0.007   0.077 -12.783  -0.031  -0.894   0.007
 -0.000  -0.001  -0.004  -0.002  -0.000  -0.000  -0.001  -0.004
 -0.000  -0.002  -0.007  -0.003  -0.000  -0.000  -0.002  -0.007
  0.000   0.000   0.000  -0.000   0.000   0.000   0.000   0.000
 -0.000  -0.000   0.000   0.000   0.000  -0.000  -0.000   0.000
  0.000  -0.000  -0.000   0.000   0.000   0.000  -0.000  -0.000
  0.000   0.000   0.000  -0.000   0.000   0.000   0.000   0.000
 -0.000  -0.000   0.000   0.000   0.000  -0.000  -0.000   0.000
  0.000  -0.000  -0.000   0.000   0.000   0.000  -0.000  -0.000
 pseudopotential strength for first ion, spin component:           2
 -8.371   0.019  -0.012   0.647   0.017  -8.842   0.019  -0.012
  0.019  -8.482  -0.009   0.013   0.673   0.019  -8.956  -0.009
 -0.012  -0.009  -7.731  -0.011  -0.004  -0.012  -0.009  -8.194
  0.647   0.013  -0.011  -8.463  -0.063   0.656   0.013  -0.011
  0.017   0.673  -0.004  -0.063  -8.389   0.017   0.683  -0.004
 -8.842   0.019  -0.012   0.656   0.017  -9.281   0.020  -0.012
  0.019  -8.956  -0.009   0.013   0.683   0.020  -9.397  -0.009
 -0.012  -0.009  -8.194  -0.011  -0.004  -0.012  -0.009  -8.623
  0.656   0.013  -0.011  -8.936  -0.064   0.668   0.013  -0.012
  0.017   0.683  -0.004  -0.064  -8.860   0.017   0.696  -0.004
 -0.003   0.002  -0.024   0.004  -0.002  -0.003   0.002  -0.025
 -0.006   0.005  -0.047   0.008  -0.003  -0.006   0.005  -0.048
  0.000   0.000   0.000  -0.000   0.000   0.000   0.000   0.000
 -0.000  -0.000   0.000   0.000   0.000  -0.000  -0.000   0.000
  0.000  -0.000  -0.000   0.000   0.000   0.000  -0.000  -0.000
  0.000   0.000   0.000  -0.000   0.000   0.000   0.000   0.000
 -0.000  -0.000   0.000   0.000   0.000  -0.000  -0.000   0.000
  0.000  -0.000  -0.000   0.000   0.000   0.000  -0.000  -0.000
 total augmentation occupancy for first ion, spin component:           1
  6.892   0.052  -0.223   2.200   0.058  -5.837   0.010   0.173  -0.830  -0.029  -0.018  -0.010  -0.000   0.000   0.000  -0.000
  0.052   5.702   0.004  -0.053   2.303   0.009  -5.001   0.001   0.041  -0.928   0.008   0.002   0.000   0.000   0.000   0.000
 -0.223   0.004   8.310   0.016  -0.109   0.174   0.001  -6.008  -0.001   0.087   0.996  -0.139   0.000   0.000   0.000  -0.000
  2.200  -0.053   0.016   5.660  -0.229  -0.853   0.041  -0.001  -4.961   0.120   0.019   0.002   0.000  -0.000   0.000  -0.000
  0.058   2.303  -0.109  -0.229   6.832  -0.029  -0.904   0.087   0.119  -5.805  -0.007  -0.005   0.000  -0.000  -0.000   0.000
 -5.837   0.009   0.174  -0.853  -0.029   5.857  -0.064  -0.131  -0.345   0.007   0.016   0.007   0.000  -0.000   0.000  -0.000
  0.010  -5.001   0.001   0.041  -0.904  -0.064   5.308  -0.002  -0.030  -0.295  -0.008  -0.001   0.000   0.000   0.000   0.000
  0.173   0.001  -6.008  -0.001   0.087  -0.131  -0.002   4.925  -0.007  -0.068  -1.027   0.153  -0.000  -0.000   0.000  -0.000
 -0.830   0.041  -0.001  -4.961   0.119  -0.345  -0.030  -0.007   5.269  -0.024  -0.020  -0.001   0.000  -0.000   0.000   0.000
 -0.029  -0.928   0.087   0.120  -5.805   0.007  -0.295  -0.068  -0.024   5.846   0.006   0.004  -0.000  -0.000   0.000   0.000
 -0.018   0.008   0.996   0.019  -0.007   0.016  -0.008  -1.027  -0.020   0.006   2.718  -0.410   0.000   0.000  -0.000  -0.000
 -0.010   0.002  -0.139   0.002  -0.005   0.007  -0.001   0.153  -0.001   0.004  -0.410   0.088   0.000   0.000  -0.000  -0.000
 -0.000   0.000   0.000   0.000  -0.000   0.000  -0.000   0.000   0.000   0.000  -0.000   0.000   0.400   0.000  -0.001  -0.033
  0.000  -0.000   0.000   0.000   0.000  -0.000  -0.000   0.000   0.000  -0.000   0.000   0.000   0.000   0.311   0.000  -0.000
  0.000   0.000   0.000   0.000  -0.000   0.000   0.000   0.000   0.000   0.000   0.000   0.000  -0.001   0.000   0.399   0.000
 -0.000   0.000  -0.000   0.000  -0.000   0.000   0.000  -0.000   0.000   0.000   0.000  -0.000  -0.033  -0.000   0.000   0.003
  0.000  -0.000  -0.000  -0.000   0.000  -0.000   0.000  -0.000   0.000   0.000  -0.000   0.000  -0.000  -0.025  -0.000   0.000
  0.000   0.000  -0.000  -0.000  -0.000   0.000   0.000  -0.000   0.000   0.000  -0.000   0.000   0.000  -0.000  -0.033  -0.000
 total augmentation occupancy for first ion, spin component:           2
  4.275   0.165  -0.253   3.789   0.059  -2.522  -0.128   0.220  -2.772  -0.024  -0.060  -0.007   0.000   0.000   0.000   0.000
  0.165   3.069   0.011  -0.082   3.875  -0.130  -1.630  -0.009   0.079  -2.855   0.023   0.000   0.000   0.000  -0.000  -0.000
 -0.253   0.011   7.413   0.036  -0.121   0.215  -0.004  -4.788  -0.020   0.104   0.248   0.013   0.000  -0.000   0.000   0.000
  3.789  -0.082   0.036   3.012  -0.313  -2.801   0.079  -0.027  -1.568   0.223   0.039   0.001  -0.000   0.000   0.000   0.000
  0.059   3.875  -0.121  -0.313   4.226  -0.024  -2.826   0.107   0.221  -2.512  -0.031  -0.004   0.000   0.000  -0.000   0.000
 -2.522  -0.130   0.215  -2.801  -0.024   1.494   0.106  -0.190   2.178   0.003   0.045   0.004  -0.000  -0.000   0.000  -0.000
 -0.128  -1.630  -0.004   0.079  -2.826   0.106   0.802   0.001  -0.072   2.214  -0.011  -0.000  -0.000  -0.000  -0.000  -0.000
  0.220  -0.009  -4.788  -0.027   0.107  -0.190   0.001   3.233   0.011  -0.093  -0.163  -0.015   0.000   0.000  -0.000   0.000
 -2.772   0.079  -0.020  -1.568   0.221   2.178  -0.072   0.011   0.743  -0.168  -0.019  -0.000   0.000   0.000  -0.000   0.000
 -0.024  -2.855   0.104   0.223  -2.512   0.003   2.214  -0.093  -0.168   1.509   0.024   0.002  -0.000   0.000  -0.000   0.000
 -0.060   0.023   0.248   0.039  -0.031   0.045  -0.011  -0.163  -0.019   0.024  -0.279   0.112   0.000  -0.000   0.000  -0.000
 -0.007   0.000   0.013   0.001  -0.004   0.004  -0.000  -0.015  -0.000   0.002   0.112  -0.020   0.000   0.000   0.000   0.000
 -0.000   0.000   0.000   0.000   0.000   0.000  -0.000   0.000   0.000   0.000  -0.000   0.000   0.013  -0.000  -0.005   0.001
 -0.000   0.000   0.000   0.000   0.000   0.000   0.000  -0.000   0.000   0.000   0.000   0.000  -0.000   0.016  -0.001   0.000
 -0.000   0.000   0.000   0.000   0.000   0.000  -0.000   0.000   0.000  -0.000   0.000   0.000  -0.005  -0.001   0.007  -0.000
 -0.000  -0.000   0.000   0.000  -0.000  -0.000  -0.000   0.000   0.000   0.000  -0.000   0.000   0.001   0.000  -0.000  -0.000
  0.000   0.000  -0.000   0.000   0.000  -0.000   0.000  -0.000   0.000   0.000   0.000   0.000   0.000  -0.000   0.000  -0.000
  0.000   0.000  -0.000  -0.000   0.000  -0.000   0.000  -0.000   0.000  -0.000   0.000  -0.000  -0.000   0.000   0.001   0.000


------------------------ aborting loop because EDIFF is reached ----------------------------------------


    CHARGE:  cpu time    0.20: real time    0.20
    FORLOC:  cpu time    0.00: real time    0.00
    FORNL :  cpu time    1.11: real time    1.11
    STRESS:  cpu time    1.46: real time    1.46
    FORCOR:  cpu time    0.02: real time    0.02
    FORHAR:  cpu time    0.00: real time    0.00
    MIXING:  cpu time    0.00: real time    0.00

  FORCE on cell =-STRESS in cart. coord.  units (eV):
  Direction    XX          YY          ZZ          XY          YZ          ZX
  --------------------------------------------------------------------------------------
  Alpha Z   189.69157   189.69157   189.69157
  Ewald    2342.38923  2345.44299 -5559.52523    -1.87066   -12.25766   -41.67984
  Hartree  3517.61082  3518.54232 -2872.83287    -0.56359   -10.59461   -34.79318
  E(xc)    -370.01821  -370.01187  -369.05405    -0.01257    -0.00915    -0.01083
  Local   -6889.40142 -6892.91792  7347.33638     2.03278    23.30775    77.08103
  n-local  -253.46827  -253.19474  -265.25258    -0.23370     0.11781     0.15986
  augment   172.26972   172.02032   178.32311     0.23153    -0.10642    -0.16369
  Kinetic  1290.96400  1290.44663  1351.42528     0.37896    -0.43532    -0.63953
  Fock        0.00000     0.00000     0.00000     0.00000     0.00000     0.00000
  -------------------------------------------------------------------------------------
  Total       0.03743     0.01929     0.11161    -0.03725     0.02240    -0.04617
  in kB       0.29893     0.15408     0.89128    -0.29749     0.17889    -0.36875
  external pressure =        0.45 kB  Pullay stress =        0.00 kB


 VOLUME and BASIS-vectors are now :
 -----------------------------------------------------------------------------
  energy-cutoff  :      520.00
  volume of cell :      200.62
      direct lattice vectors                 reciprocal lattice vectors
     5.742664680  0.120056527 -0.031734710     0.172101809  0.104095754  0.025850338
    -2.973541556  4.914181885  0.007984859    -0.004316442  0.200914956 -0.021009332
    -1.480738404  0.703015562  7.027251475     0.000782108  0.000241797  0.142443758

  length of vectors
     5.744007163  5.743796370  7.215890825     0.202788556  0.202056535  0.142446110


 FORCES acting on ions
    electron-ion (+dipol)            ewald-force                    non-local-force                 convergence-correction
 -----------------------------------------------------------------------------------------------
   0.177E-06 -.817E-07 0.544E-06   -.174E-05 0.806E-06 -.544E-05   -.178E-21 0.862E-22 -.284E-21   0.146E-07 -.159E-08 0.123E-05
   0.177E-06 -.817E-07 0.544E-06   -.174E-05 0.806E-06 -.544E-05   0.175E-21 0.115E-21 -.660E-22   0.146E-07 -.159E-08 0.123E-05
   0.177E-06 -.817E-07 0.544E-06   -.174E-05 0.806E-06 -.544E-05   -.939E-22 -.538E-22 0.998E-22   0.146E-07 -.159E-08 0.123E-05
   0.177E-06 -.817E-07 0.544E-06   -.174E-05 0.806E-06 -.544E-05   -.316E-21 0.501E-22 0.120E-21   0.146E-07 -.159E-08 0.123E-05
   -.271E+01 -.933E+00 -.449E+03   0.283E+01 0.959E+00 0.474E+03   -.123E+00 -.240E-01 -.259E+02   0.564E-03 0.263E-03 0.711E-01
   0.271E+01 0.933E+00 0.449E+03   -.283E+01 -.959E+00 -.474E+03   0.123E+00 0.240E-01 0.259E+02   -.564E-03 -.263E-03 -.711E-01
   -.271E+01 -.933E+00 -.449E+03   0.283E+01 0.959E+00 0.474E+03   -.123E+00 -.240E-01 -.259E+02   0.565E-03 0.258E-03 0.711E-01
   0.271E+01 0.933E+00 0.449E+03   -.283E+01 -.959E+00 -.474E+03   0.123E+00 0.240E-01 0.259E+02   -.565E-03 -.258E-03 -.711E-01
   -.271E+01 -.933E+00 -.449E+03   0.283E+01 0.959E+00 0.474E+03   -.123E+00 -.240E-01 -.259E+02   0.564E-03 0.263E-03 0.711E-01
   0.271E+01 0.933E+00 0.449E+03   -.283E+01 -.959E+00 -.474E+03   0.123E+00 0.240E-01 0.259E+02   -.564E-03 -.263E-03 -.711E-01
   -.271E+01 -.933E+00 -.449E+03   0.283E+01 0.959E+00 0.474E+03   -.123E+00 -.240E-01 -.259E+02   0.565E-03 0.258E-03 0.711E-01
   0.271E+01 0.933E+00 0.449E+03   -.283E+01 -.959E+00 -.474E+03   0.123E+00 0.240E-01 0.259E+02   -.565E-03 -.258E-03 -.711E-01
 -----------------------------------------------------------------------------------------------
   0.680E-04 -.327E-04 -.402E-03   -.111E-13 -.288E-13 0.568E-13   0.194E-15 0.153E-15 0.284E-13   -.486E-07 0.698E-07 0.116E-04
 
 
 POSITION                                       TOTAL-FORCE (eV/Angst)
 -----------------------------------------------------------------------------------
      0.00000      0.00000      0.00000        -0.000000      0.000000     -0.000000
     -1.48677      2.45709      0.00399        -0.000000      0.000000     -0.000000
      2.87133      0.06003     -0.01587        -0.000000      0.000000     -0.000000
      1.38456      2.51712     -0.01187        -0.000000      0.000000     -0.000000
     -1.51677      4.11552      0.95821        -0.006570      0.001826      0.014091
      2.80515      1.62174      6.04529         0.006570     -0.001826     -0.014091
     -0.03000      1.65843      0.95422        -0.006570      0.001826      0.014091
      1.31838      4.07883      6.04929         0.006570     -0.001826     -0.014091
      1.35456      4.17555      0.94234        -0.006570      0.001826      0.014091
     -0.06618      1.56171      6.06116         0.006570     -0.001826     -0.014091
      2.84133      1.71845      0.93835        -0.006570      0.001826      0.014091
     -1.55295      4.01880      6.06515         0.006570     -0.001826     -0.014091
 -----------------------------------------------------------------------------------
    total drift:                                0.000068     -0.000033     -0.000391


--------------------------------------------------------------------------------------------------------



  FREE ENERGIE OF THE ION-ELECTRON SYSTEM (eV)
  ---------------------------------------------------
  free  energy   TOTEN  =       -89.02973574 eV

  energy  without entropy=      -89.02973574  energy(sigma->0) =      -89.02973574
 


--------------------------------------------------------------------------------------------------------


    POTLOK:  cpu time    0.03: real time    0.03


--------------------------------------------------------------------------------------------------------


     LOOP+:  cpu time   94.08: real time   96.33
    4ORBIT:  cpu time    0.00: real time    0.00
 BZINTS: Fermi energy: -2.333692; 76.000000 electrons
         Band energy:-613.972071;  BLOECHL correction:  0.000000

 total amount of memory used by VASP on root node    83472. kBytes
========================================================================

   base      :      30000. kBytes
   nonl-proj :      30382. kBytes
   fftplans  :        673. kBytes
   grid      :       1662. kBytes
   one-center:         93. kBytes
   wavefun   :      20662. kBytes
 
  
  
 General timing and accounting informations for this job:
 ========================================================
  
                  Total CPU time used (sec):       97.825
                            User time (sec):       97.376
                          System time (sec):        0.449
                         Elapsed time (sec):      101.654
  
                   Maximum memory used (kb):      167140.
                   Average memory used (kb):           0.
  
                          Minor page faults:        16631
                          Major page faults:            0
                 Voluntary context switches:         4599
