 vasp.5.3.3 18Dez12 (build May 12 2016 12:04:25) complex                        
  
 executed on             LinuxIFC date 2019.06.08  13:50:53
 running on   32 total cores
 distrk:  each k-point on   32 cores,    1 groups
 distr:  one band on NCORES_PER_BAND=   4 cores,    8 groups


--------------------------------------------------------------------------------------------------------


 INCAR:
 POTCAR:    PAW_PBE O 08Apr2002                   
 POTCAR:    PAW_PBE Mn 06Sep2000                  
 POTCAR:    PAW_PBE O 08Apr2002                   
  local pseudopotential read in
  partial core-charges read in
  partial kinetic energy density read in
  kinetic energy density of atom read in
  atomic valenz-charges read in
  non local Contribution for L=           0  read in
    real space projection operators read in
  non local Contribution for L=           0  read in
    real space projection operators read in
  non local Contribution for L=           1  read in
    real space projection operators read in
  non local Contribution for L=           1  read in
    real space projection operators read in
    PAW grid and wavefunctions read in
 
   number of l-projection  operators is LMAX  =           4
   number of lm-projection operators is LMMAX =           8
 
 POTCAR:    PAW_PBE Mn 06Sep2000                  
  local pseudopotential read in
  partial core-charges read in
  partial kinetic energy density read in
  atomic valenz-charges read in
  non local Contribution for L=           2  read in
    real space projection operators read in
  non local Contribution for L=           2  read in
    real space projection operators read in
  non local Contribution for L=           0  read in
    real space projection operators read in
  non local Contribution for L=           0  read in
    real space projection operators read in
  non local Contribution for L=           1  read in
    real space projection operators read in
  non local Contribution for L=           1  read in
    real space projection operators read in
    PAW grid and wavefunctions read in
 
   number of l-projection  operators is LMAX  =           6
   number of lm-projection operators is LMMAX =          18
 

 ----------------------------------------------------------------------------- 
|                                                                             |
|  ADVICE TO THIS USER RUNNING 'VASP/VAMP'   (HEAR YOUR MASTER'S VOICE ...):  |
|                                                                             |
|      You enforced a specific xc-type in the INCAR file,                     |
|      a different type was found on the POTCAR file                          |
|          I HOPE YOU KNOW, WHAT YOU ARE  DOING                               |
|                                                                             |
 ----------------------------------------------------------------------------- 

  PAW_PBE O 08Apr2002                   :
 energy of atom  1       EATOM= -432.3788
 kinetic energy error for atom=    0.0208 (will be added to EATOM!!)
  PAW_PBE Mn 06Sep2000                  :
 energy of atom  2       EATOM= -416.7541
 kinetic energy error for atom=    0.0024 (will be added to EATOM!!)
 
 
 POSCAR: (Mn O2)8  (I4/m) ~  (Pearson #1102438)_1
  positions in direct lattice
  velocities in cartesian coordinates
 exchange correlation table for  LEXCH =       14
   RHO(1)=    0.500       N(1)  =     2000
   RHO(2)=  100.500       N(2)  =     4000
 


--------------------------------------------------------------------------------------------------------


 ion  position               nearest neighbor table
   1  0.639  0.844  0.795-  10 1.91  10 1.91   9 1.92
   2  0.361  0.156  0.205-   9 1.91   9 1.91  10 1.92
   3  0.048  0.203  0.845-  12 1.91  12 1.91  11 1.92
   4  0.952  0.797  0.155-  11 1.91  11 1.91  12 1.92
   5  0.380  0.838  0.542-  10 1.89  10 1.89  12 1.89
   6  0.620  0.162  0.458-   9 1.89   9 1.89  11 1.89
   7  0.291  0.457  0.833-  12 1.89  12 1.89   9 1.90
   8  0.709  0.543  0.167-  11 1.89  11 1.89  10 1.90
   9  0.485  0.652  0.834-   6 1.89   6 1.89   7 1.90   2 1.91   2 1.91   1 1.92  10 2.90  10 2.90

  10  0.515  0.348  0.166-   5 1.89   5 1.89   8 1.90   1 1.91   1 1.91   2 1.92   9 2.90   9 2.90

  11  0.819  0.167  0.652-   8 1.89   8 1.89   6 1.89   4 1.91   4 1.91   3 1.92  12 2.89  12 2.89

  12  0.181  0.833  0.348-   7 1.89   7 1.89   5 1.89   3 1.91   3 1.91   4 1.92  11 2.89  11 2.89

 
  LATTYP: Found a base centered monoclinic cell.
 ALAT       =    13.8618402552
 B/A-ratio  =     0.2075104477
 C/A-ratio  =     0.7049345210
 COS(beta)  =    -0.6940536832
  
  Lattice vectors:
  
 A1 = (   4.8993619022,   4.9024388590,   1.4382383389)
 A2 = (   4.8993619022,   4.9024388590,  -1.4382383389)
 A3 = (  -9.7716523085,  -0.0270399854,   0.0000000000)


Analysis of symmetry for initial positions (statically):
=====================================================================
 Subroutine PRICEL returns:
 Original cell was already a primitive cell.
 

 Routine SETGRP: Setting up the symmetry group for a 
 base centered monoclinic supercell.


 Subroutine GETGRP returns: Found  4 space group operations
 (whereof  4 operations were pure point group operations)
 out of a pool of  4 trial point group operations.


The static configuration has the point symmetry C_2h.


Analysis of symmetry for dynamics (positions and initial velocities):
=====================================================================
 Subroutine PRICEL returns:
 Original cell was already a primitive cell.
 

 Routine SETGRP: Setting up the symmetry group for a 
 base centered monoclinic supercell.


 Subroutine GETGRP returns: Found  4 space group operations
 (whereof  4 operations were pure point group operations)
 out of a pool of  4 trial point group operations.


The dynamic configuration has the point symmetry C_2h.


Analysis of magnetic symmetry:
=====================================================================

 Subroutine MAGSYM returns: Found  4 space group operations
 (whereof  4 operations were pure point group operations)
 out of a pool of  4 trial space group operations
 (whereof  4 operations were pure point group operations)
 and found also     1 'primitive' translations


The magnetic configuration has the point symmetry C_2h.


 irot  :   1
 --------------------------------------------------------------------
 isymop:   1   0   0
           0   1   0
           0   0   1

 gtrans:     0.0000000     0.0000000     0.0000000

 ptrans:     0.0000000     0.0000000     0.0000000
 rotmap:
 (   1->   1)  (   2->   2)  (   3->   3)  (   4->   4)  (   5->   5) 
 (   6->   6)  (   7->   7)  (   8->   8)  (   9->   9)  (  10->  10) 
 (  11->  11)  (  12->  12) 


 irot  :   2
 --------------------------------------------------------------------
 isymop:  -1   0   0
           0  -1   0
           0   0  -1

 gtrans:     0.0000000     0.0000000     0.0000000

 ptrans:     0.0000000     0.0000000     0.0000000
 rotmap:
 (   1->   2)  (   2->   1)  (   3->   4)  (   4->   3)  (   5->   6) 
 (   6->   5)  (   7->   8)  (   8->   7)  (   9->  10)  (  10->   9) 
 (  11->  12)  (  12->  11) 


 irot  :   3
 --------------------------------------------------------------------
 isymop:  -1   0   0
          -1   0   1
          -1   1   0

 gtrans:     0.0000000     0.0000000     0.0000000

 ptrans:     0.0000000     0.0000000     0.0000000
 rotmap:
 (   1->   2)  (   2->   1)  (   3->   4)  (   4->   3)  (   5->   6) 
 (   6->   5)  (   7->   8)  (   8->   7)  (   9->  10)  (  10->   9) 
 (  11->  12)  (  12->  11) 


 irot  :   4
 --------------------------------------------------------------------
 isymop:   1   0   0
           1   0  -1
           1  -1   0

 gtrans:     0.0000000     0.0000000     0.0000000

 ptrans:     0.0000000     0.0000000     0.0000000
 rotmap:
 (   1->   1)  (   2->   2)  (   3->   3)  (   4->   4)  (   5->   5) 
 (   6->   6)  (   7->   7)  (   8->   8)  (   9->   9)  (  10->  10) 
 (  11->  11)  (  12->  12) 
 
 
 KPOINTS: Automatic mesh                          

Automatic generation of k-mesh.
Space group operators:
 irot       det(A)        alpha          n_x          n_y          n_z        tau_x        tau_y        tau_z
    1     1.000000     0.000001     1.000000     0.000000     0.000000     0.000000     0.000000     0.000000
    2    -1.000000     0.000001     1.000000     0.000000     0.000000     0.000000     0.000000     0.000000
    3     1.000000   180.000000     0.000000    -0.000000    -1.000000     0.000000     0.000000     0.000000
    4    -1.000000   180.000000     0.000000    -0.000000    -1.000000     0.000000     0.000000     0.000000
 
 Subroutine IBZKPT returns following result:
 ===========================================
 
 Found    282 irreducible k-points:
 
 Following reciprocal coordinates:
            Coordinates               Weight
  0.000000  0.000000  0.000000      1.000000
  0.100000  0.000000 -0.000000      2.000000
  0.200000  0.000000 -0.000000      2.000000
  0.300000  0.000000 -0.000000      2.000000
  0.400000  0.000000 -0.000000      2.000000
  0.500000  0.000000 -0.000000      1.000000
 -0.000000  0.100000  0.000000      4.000000
  0.100000  0.100000 -0.000000      4.000000
  0.200000  0.100000  0.000000      4.000000
  0.300000  0.100000 -0.000000      4.000000
  0.400000  0.100000 -0.000000      4.000000
  0.500000  0.100000 -0.000000      4.000000
 -0.400000  0.100000  0.000000      4.000000
 -0.300000  0.100000  0.000000      4.000000
 -0.200000  0.100000 -0.000000      4.000000
 -0.100000  0.100000  0.000000      4.000000
 -0.000000  0.200000 -0.000000      4.000000
  0.100000  0.200000 -0.000000      4.000000
  0.200000  0.200000 -0.000000      4.000000
  0.300000  0.200000 -0.000000      4.000000
  0.400000  0.200000 -0.000000      4.000000
  0.500000  0.200000 -0.000000      4.000000
 -0.400000  0.200000 -0.000000      4.000000
 -0.300000  0.200000  0.000000      4.000000
 -0.200000  0.200000 -0.000000      4.000000
 -0.100000  0.200000 -0.000000      4.000000
 -0.000000  0.300000  0.000000      4.000000
  0.100000  0.300000 -0.000000      4.000000
  0.200000  0.300000  0.000000      4.000000
  0.300000  0.300000 -0.000000      4.000000
  0.400000  0.300000 -0.000000      4.000000
  0.500000  0.300000 -0.000000      4.000000
 -0.400000  0.300000  0.000000      4.000000
 -0.300000  0.300000  0.000000      4.000000
 -0.200000  0.300000  0.000000      4.000000
 -0.100000  0.300000  0.000000      4.000000
 -0.000000  0.400000 -0.000000      4.000000
  0.100000  0.400000 -0.000000      4.000000
  0.200000  0.400000 -0.000000      4.000000
  0.300000  0.400000 -0.000000      4.000000
  0.400000  0.400000 -0.000000      4.000000
  0.500000  0.400000 -0.000000      4.000000
 -0.400000  0.400000 -0.000000      4.000000
 -0.300000  0.400000  0.000000      4.000000
 -0.200000  0.400000 -0.000000      4.000000
 -0.100000  0.400000 -0.000000      4.000000
 -0.000000  0.500000 -0.000000      2.000000
  0.100000  0.500000 -0.000000      4.000000
  0.200000  0.500000  0.000000      4.000000
  0.300000  0.500000 -0.000000      4.000000
  0.400000  0.500000 -0.000000      4.000000
  0.500000  0.500000 -0.000000      2.000000
 -0.000000  0.100000  0.100000      4.000000
  0.100000  0.100000  0.100000      4.000000
  0.200000  0.100000  0.100000      4.000000
  0.300000  0.100000  0.100000      4.000000
  0.400000  0.100000  0.100000      2.000000
 -0.100000  0.100000  0.100000      2.000000
 -0.000000  0.200000  0.100000      4.000000
  0.100000  0.200000  0.100000      4.000000
  0.200000  0.200000  0.100000      4.000000
  0.300000  0.200000  0.100000      4.000000
  0.400000  0.200000  0.100000      4.000000
  0.500000  0.200000  0.100000      4.000000
 -0.400000  0.200000  0.100000      4.000000
 -0.300000  0.200000  0.100000      4.000000
 -0.200000  0.200000  0.100000      4.000000
 -0.100000  0.200000  0.100000      4.000000
 -0.000000  0.300000  0.100000      4.000000
  0.100000  0.300000  0.100000      4.000000
  0.200000  0.300000  0.100000      4.000000
  0.300000  0.300000  0.100000      4.000000
  0.400000  0.300000  0.100000      4.000000
  0.500000  0.300000  0.100000      4.000000
 -0.400000  0.300000  0.100000      4.000000
 -0.300000  0.300000  0.100000      4.000000
 -0.200000  0.300000  0.100000      4.000000
 -0.100000  0.300000  0.100000      4.000000
  0.000000  0.400000  0.100000      4.000000
  0.100000  0.400000  0.100000      4.000000
  0.200000  0.400000  0.100000      4.000000
  0.300000  0.400000  0.100000      4.000000
  0.400000  0.400000  0.100000      4.000000
  0.500000  0.400000  0.100000      4.000000
 -0.400000  0.400000  0.100000      4.000000
 -0.300000  0.400000  0.100000      4.000000
 -0.200000  0.400000  0.100000      4.000000
 -0.100000  0.400000  0.100000      4.000000
 -0.000000  0.500000  0.100000      4.000000
  0.100000  0.500000  0.100000      4.000000
  0.200000  0.500000  0.100000      4.000000
  0.300000  0.500000  0.100000      4.000000
  0.400000  0.500000  0.100000      4.000000
  0.500000  0.500000  0.100000      4.000000
 -0.400000  0.500000  0.100000      4.000000
 -0.300000  0.500000  0.100000      4.000000
 -0.200000  0.500000  0.100000      4.000000
 -0.100000  0.500000  0.100000      4.000000
  0.000000 -0.400000  0.100000      4.000000
  0.100000 -0.400000  0.100000      4.000000
  0.200000 -0.400000  0.100000      4.000000
  0.300000 -0.400000  0.100000      4.000000
  0.400000 -0.400000  0.100000      4.000000
  0.500000 -0.400000  0.100000      4.000000
 -0.400000 -0.400000  0.100000      4.000000
 -0.300000 -0.400000  0.100000      4.000000
 -0.200000 -0.400000  0.100000      4.000000
 -0.100000 -0.400000  0.100000      4.000000
  0.000000 -0.300000  0.100000      4.000000
  0.100000 -0.300000  0.100000      4.000000
  0.200000 -0.300000  0.100000      4.000000
  0.300000 -0.300000  0.100000      4.000000
  0.400000 -0.300000  0.100000      4.000000
  0.500000 -0.300000  0.100000      4.000000
 -0.400000 -0.300000  0.100000      4.000000
 -0.300000 -0.300000  0.100000      4.000000
 -0.200000 -0.300000  0.100000      4.000000
 -0.100000 -0.300000  0.100000      4.000000
 -0.000000 -0.200000  0.100000      4.000000
  0.100000 -0.200000  0.100000      4.000000
  0.200000 -0.200000  0.100000      4.000000
  0.300000 -0.200000  0.100000      4.000000
  0.400000 -0.200000  0.100000      4.000000
  0.500000 -0.200000  0.100000      4.000000
 -0.400000 -0.200000  0.100000      4.000000
 -0.300000 -0.200000  0.100000      4.000000
 -0.200000 -0.200000  0.100000      4.000000
 -0.100000 -0.200000  0.100000      4.000000
 -0.000000 -0.100000  0.100000      2.000000
  0.100000 -0.100000  0.100000      2.000000
  0.200000 -0.100000  0.100000      2.000000
  0.300000 -0.100000  0.100000      2.000000
  0.400000 -0.100000  0.100000      2.000000
  0.500000 -0.100000  0.100000      2.000000
 -0.400000 -0.100000  0.100000      2.000000
 -0.300000 -0.100000  0.100000      2.000000
 -0.200000 -0.100000  0.100000      2.000000
 -0.100000 -0.100000  0.100000      2.000000
 -0.000000  0.200000  0.200000      4.000000
  0.100000  0.200000  0.200000      4.000000
  0.200000  0.200000  0.200000      4.000000
  0.300000  0.200000  0.200000      2.000000
 -0.300000  0.200000  0.200000      4.000000
 -0.200000  0.200000  0.200000      2.000000
 -0.000000  0.300000  0.200000      4.000000
  0.100000  0.300000  0.200000      4.000000
  0.200000  0.300000  0.200000      4.000000
  0.300000  0.300000  0.200000      4.000000
  0.400000  0.300000  0.200000      4.000000
  0.500000  0.300000  0.200000      4.000000
 -0.400000  0.300000  0.200000      4.000000
 -0.300000  0.300000  0.200000      4.000000
 -0.200000  0.300000  0.200000      4.000000
 -0.100000  0.300000  0.200000      4.000000
 -0.000000  0.400000  0.200000      4.000000
  0.100000  0.400000  0.200000      4.000000
  0.200000  0.400000  0.200000      4.000000
  0.300000  0.400000  0.200000      4.000000
  0.400000  0.400000  0.200000      4.000000
  0.500000  0.400000  0.200000      4.000000
 -0.400000  0.400000  0.200000      4.000000
 -0.300000  0.400000  0.200000      4.000000
 -0.200000  0.400000  0.200000      4.000000
 -0.100000  0.400000  0.200000      4.000000
 -0.000000  0.500000  0.200000      4.000000
  0.100000  0.500000  0.200000      4.000000
  0.200000  0.500000  0.200000      4.000000
  0.300000  0.500000  0.200000      4.000000
  0.400000  0.500000  0.200000      4.000000
  0.500000  0.500000  0.200000      4.000000
 -0.400000  0.500000  0.200000      4.000000
 -0.300000  0.500000  0.200000      4.000000
 -0.200000  0.500000  0.200000      4.000000
 -0.100000  0.500000  0.200000      4.000000
  0.000000 -0.400000  0.200000      4.000000
  0.100000 -0.400000  0.200000      4.000000
  0.200000 -0.400000  0.200000      4.000000
  0.300000 -0.400000  0.200000      4.000000
  0.400000 -0.400000  0.200000      4.000000
  0.500000 -0.400000  0.200000      4.000000
 -0.400000 -0.400000  0.200000      4.000000
 -0.300000 -0.400000  0.200000      4.000000
 -0.200000 -0.400000  0.200000      4.000000
 -0.100000 -0.400000  0.200000      4.000000
 -0.000000 -0.300000  0.200000      4.000000
  0.100000 -0.300000  0.200000      4.000000
  0.200000 -0.300000  0.200000      4.000000
  0.300000 -0.300000  0.200000      4.000000
  0.400000 -0.300000  0.200000      4.000000
  0.500000 -0.300000  0.200000      4.000000
 -0.400000 -0.300000  0.200000      4.000000
 -0.300000 -0.300000  0.200000      4.000000
 -0.200000 -0.300000  0.200000      4.000000
 -0.100000 -0.300000  0.200000      4.000000
 -0.000000 -0.200000  0.200000      2.000000
  0.100000 -0.200000  0.200000      2.000000
  0.200000 -0.200000  0.200000      2.000000
  0.300000 -0.200000  0.200000      2.000000
  0.400000 -0.200000  0.200000      2.000000
  0.500000 -0.200000  0.200000      2.000000
 -0.400000 -0.200000  0.200000      2.000000
 -0.300000 -0.200000  0.200000      2.000000
 -0.200000 -0.200000  0.200000      2.000000
 -0.100000 -0.200000  0.200000      2.000000
 -0.000000  0.300000  0.300000      4.000000
  0.100000  0.300000  0.300000      4.000000
  0.200000  0.300000  0.300000      2.000000
  0.500000  0.300000  0.300000      4.000000
 -0.400000  0.300000  0.300000      4.000000
 -0.300000  0.300000  0.300000      2.000000
  0.000000  0.400000  0.300000      4.000000
  0.100000  0.400000  0.300000      4.000000
  0.200000  0.400000  0.300000      4.000000
  0.300000  0.400000  0.300000      4.000000
  0.400000  0.400000  0.300000      4.000000
  0.500000  0.400000  0.300000      4.000000
 -0.400000  0.400000  0.300000      4.000000
 -0.300000  0.400000  0.300000      4.000000
 -0.200000  0.400000  0.300000      4.000000
 -0.100000  0.400000  0.300000      4.000000
  0.000000  0.500000  0.300000      4.000000
  0.100000  0.500000  0.300000      4.000000
  0.200000  0.500000  0.300000      4.000000
  0.300000  0.500000  0.300000      4.000000
  0.400000  0.500000  0.300000      4.000000
  0.500000  0.500000  0.300000      4.000000
 -0.400000  0.500000  0.300000      4.000000
 -0.300000  0.500000  0.300000      4.000000
 -0.200000  0.500000  0.300000      4.000000
 -0.100000  0.500000  0.300000      4.000000
  0.000000 -0.400000  0.300000      4.000000
  0.100000 -0.400000  0.300000      4.000000
  0.200000 -0.400000  0.300000      4.000000
  0.300000 -0.400000  0.300000      4.000000
  0.400000 -0.400000  0.300000      4.000000
  0.500000 -0.400000  0.300000      4.000000
 -0.400000 -0.400000  0.300000      4.000000
 -0.300000 -0.400000  0.300000      4.000000
 -0.200000 -0.400000  0.300000      4.000000
 -0.100000 -0.400000  0.300000      4.000000
 -0.000000 -0.300000  0.300000      2.000000
  0.100000 -0.300000  0.300000      2.000000
  0.200000 -0.300000  0.300000      2.000000
  0.300000 -0.300000  0.300000      2.000000
  0.400000 -0.300000  0.300000      2.000000
  0.500000 -0.300000  0.300000      2.000000
 -0.400000 -0.300000  0.300000      2.000000
 -0.300000 -0.300000  0.300000      2.000000
 -0.200000 -0.300000  0.300000      2.000000
 -0.100000 -0.300000  0.300000      2.000000
 -0.000000  0.400000  0.400000      4.000000
  0.100000  0.400000  0.400000      2.000000
  0.300000  0.400000  0.400000      4.000000
  0.400000  0.400000  0.400000      4.000000
  0.500000  0.400000  0.400000      4.000000
 -0.400000  0.400000  0.400000      2.000000
 -0.000000  0.500000  0.400000      4.000000
  0.100000  0.500000  0.400000      4.000000
  0.200000  0.500000  0.400000      4.000000
  0.300000  0.500000  0.400000      4.000000
  0.400000  0.500000  0.400000      4.000000
  0.500000  0.500000  0.400000      4.000000
 -0.400000  0.500000  0.400000      4.000000
 -0.300000  0.500000  0.400000      4.000000
 -0.200000  0.500000  0.400000      4.000000
 -0.100000  0.500000  0.400000      4.000000
 -0.000000 -0.400000  0.400000      2.000000
  0.100000 -0.400000  0.400000      2.000000
  0.200000 -0.400000  0.400000      2.000000
  0.300000 -0.400000  0.400000      2.000000
  0.400000 -0.400000  0.400000      2.000000
  0.500000 -0.400000  0.400000      2.000000
 -0.400000 -0.400000  0.400000      2.000000
 -0.300000 -0.400000  0.400000      2.000000
 -0.200000 -0.400000  0.400000      2.000000
 -0.100000 -0.400000  0.400000      2.000000
 -0.000000  0.500000  0.500000      1.000000
  0.100000  0.500000  0.500000      2.000000
  0.200000  0.500000  0.500000      2.000000
  0.300000  0.500000  0.500000      2.000000
  0.400000  0.500000  0.500000      2.000000
  0.500000  0.500000  0.500000      1.000000
 
 Following cartesian coordinates:
            Coordinates               Weight
  0.000000  0.000000  0.000000      1.000000
 -0.010205 -0.010199  0.000000      2.000000
 -0.020411 -0.020398  0.000000      2.000000
 -0.030616 -0.030597  0.000000      2.000000
 -0.040822 -0.040796  0.000000      2.000000
 -0.051027 -0.050995  0.000000      1.000000
 -0.010234  0.000028 -0.034765      4.000000
 -0.020439 -0.010171 -0.034765      4.000000
 -0.030645 -0.020370 -0.034765      4.000000
 -0.040850 -0.030569 -0.034765      4.000000
 -0.051056 -0.040767 -0.034765      4.000000
 -0.061261 -0.050966 -0.034765      4.000000
  0.030588  0.040824 -0.034765      4.000000
  0.020383  0.030625 -0.034765      4.000000
  0.010177  0.020426 -0.034765      4.000000
 -0.000028  0.010227 -0.034765      4.000000
 -0.020468  0.000057 -0.069530      4.000000
 -0.030673 -0.010142 -0.069530      4.000000
 -0.040878 -0.020341 -0.069530      4.000000
 -0.051084 -0.030540 -0.069530      4.000000
 -0.061289 -0.040739 -0.069530      4.000000
 -0.071495 -0.050938 -0.069530      4.000000
  0.020354  0.040852 -0.069530      4.000000
  0.010149  0.030654 -0.069530      4.000000
 -0.000057  0.020455 -0.069530      4.000000
 -0.010262  0.010256 -0.069530      4.000000
 -0.030701  0.000085 -0.104294      4.000000
 -0.040907 -0.010114 -0.104294      4.000000
 -0.051112 -0.020313 -0.104294      4.000000
 -0.061318 -0.030512 -0.104294      4.000000
 -0.071523 -0.040711 -0.104294      4.000000
 -0.081729 -0.050910 -0.104294      4.000000
  0.010121  0.040881 -0.104294      4.000000
 -0.000085  0.030682 -0.104294      4.000000
 -0.010290  0.020483 -0.104294      4.000000
 -0.020496  0.010284 -0.104294      4.000000
 -0.040935  0.000113 -0.139059      4.000000
 -0.051141 -0.010086 -0.139059      4.000000
 -0.061346 -0.020285 -0.139059      4.000000
 -0.071551 -0.030484 -0.139059      4.000000
 -0.081757 -0.040682 -0.139059      4.000000
 -0.091962 -0.050881 -0.139059      4.000000
 -0.000113  0.040909 -0.139059      4.000000
 -0.010319  0.030710 -0.139059      4.000000
 -0.020524  0.020511 -0.139059      4.000000
 -0.030730  0.010312 -0.139059      4.000000
 -0.051169  0.000142 -0.173824      2.000000
 -0.061374 -0.010057 -0.173824      4.000000
 -0.071580 -0.020256 -0.173824      4.000000
 -0.081785 -0.030455 -0.173824      4.000000
 -0.091991 -0.040654 -0.173824      4.000000
 -0.102196 -0.050853 -0.173824      2.000000
 -0.010205 -0.010199 -0.069530      4.000000
 -0.020411 -0.020398 -0.069530      4.000000
 -0.030616 -0.030597 -0.069530      4.000000
 -0.040822 -0.040796 -0.069530      4.000000
 -0.051027 -0.050995 -0.069530      2.000000
  0.000000  0.000000 -0.069530      2.000000
 -0.020439 -0.010171 -0.104294      4.000000
 -0.030645 -0.020370 -0.104294      4.000000
 -0.040850 -0.030569 -0.104294      4.000000
 -0.051056 -0.040767 -0.104294      4.000000
 -0.061261 -0.050966 -0.104294      4.000000
 -0.071467 -0.061165 -0.104294      4.000000
  0.020383  0.030625 -0.104294      4.000000
  0.010177  0.020426 -0.104294      4.000000
 -0.000028  0.010227 -0.104294      4.000000
 -0.010234  0.000028 -0.104294      4.000000
 -0.030673 -0.010142 -0.139059      4.000000
 -0.040878 -0.020341 -0.139059      4.000000
 -0.051084 -0.030540 -0.139059      4.000000
 -0.061289 -0.040739 -0.139059      4.000000
 -0.071495 -0.050938 -0.139059      4.000000
 -0.081700 -0.061137 -0.139059      4.000000
  0.010149  0.030654 -0.139059      4.000000
 -0.000057  0.020455 -0.139059      4.000000
 -0.010262  0.010256 -0.139059      4.000000
 -0.020468  0.000057 -0.139059      4.000000
 -0.040907 -0.010114 -0.173824      4.000000
 -0.051112 -0.020313 -0.173824      4.000000
 -0.061318 -0.030512 -0.173824      4.000000
 -0.071523 -0.040711 -0.173824      4.000000
 -0.081729 -0.050910 -0.173824      4.000000
 -0.091934 -0.061109 -0.173824      4.000000
 -0.000085  0.030682 -0.173824      4.000000
 -0.010290  0.020483 -0.173824      4.000000
 -0.020496  0.010284 -0.173824      4.000000
 -0.030701  0.000085 -0.173824      4.000000
 -0.051141 -0.010086 -0.208589      4.000000
 -0.061346 -0.020285 -0.208589      4.000000
 -0.071551 -0.030484 -0.208589      4.000000
 -0.081757 -0.040682 -0.208589      4.000000
 -0.091962 -0.050881 -0.208589      4.000000
 -0.102168 -0.061080 -0.208589      4.000000
 -0.010319  0.030710 -0.208589      4.000000
 -0.020524  0.020511 -0.208589      4.000000
 -0.030730  0.010312 -0.208589      4.000000
 -0.040935  0.000113 -0.208589      4.000000
  0.040963 -0.010341  0.104294      4.000000
  0.030758 -0.020540  0.104294      4.000000
  0.020552 -0.030739  0.104294      4.000000
  0.010347 -0.040937  0.104294      4.000000
  0.000142 -0.051136  0.104294      4.000000
 -0.010064 -0.061335  0.104294      4.000000
  0.081785  0.030455  0.104294      4.000000
  0.071580  0.020256  0.104294      4.000000
  0.061374  0.010057  0.104294      4.000000
  0.051169 -0.000142  0.104294      4.000000
  0.030730 -0.010312  0.069530      4.000000
  0.020524 -0.020511  0.069530      4.000000
  0.010319 -0.030710  0.069530      4.000000
  0.000113 -0.040909  0.069530      4.000000
 -0.010092 -0.051108  0.069530      4.000000
 -0.020298 -0.061307  0.069530      4.000000
  0.071551  0.030484  0.069530      4.000000
  0.061346  0.020285  0.069530      4.000000
  0.051141  0.010086  0.069530      4.000000
  0.040935 -0.000113  0.069530      4.000000
  0.020496 -0.010284  0.034765      4.000000
  0.010290 -0.020483  0.034765      4.000000
  0.000085 -0.030682  0.034765      4.000000
 -0.010121 -0.040881  0.034765      4.000000
 -0.020326 -0.051080  0.034765      4.000000
 -0.030531 -0.061279  0.034765      4.000000
  0.061318  0.030512  0.034765      4.000000
  0.051112  0.020313  0.034765      4.000000
  0.040907  0.010114  0.034765      4.000000
  0.030701 -0.000085  0.034765      4.000000
  0.010262 -0.010256 -0.000000      2.000000
  0.000057 -0.020455  0.000000      2.000000
 -0.010149 -0.030654 -0.000000      2.000000
 -0.020354 -0.040852  0.000000      2.000000
 -0.030560 -0.051051  0.000000      2.000000
 -0.040765 -0.061250  0.000000      2.000000
  0.051084  0.030540  0.000000      2.000000
  0.040878  0.020341 -0.000000      2.000000
  0.030673  0.010142  0.000000      2.000000
  0.020468 -0.000057 -0.000000      2.000000
 -0.020411 -0.020398 -0.139059      4.000000
 -0.030616 -0.030597 -0.139059      4.000000
 -0.040822 -0.040796 -0.139059      4.000000
 -0.051027 -0.050995 -0.139059      2.000000
  0.010205  0.010199 -0.139059      4.000000
  0.000000 -0.000000 -0.139059      2.000000
 -0.030645 -0.020370 -0.173824      4.000000
 -0.040850 -0.030569 -0.173824      4.000000
 -0.051056 -0.040767 -0.173824      4.000000
 -0.061261 -0.050966 -0.173824      4.000000
 -0.071467 -0.061165 -0.173824      4.000000
 -0.081672 -0.071364 -0.173824      4.000000
  0.010177  0.020426 -0.173824      4.000000
 -0.000028  0.010227 -0.173824      4.000000
 -0.010234  0.000028 -0.173824      4.000000
 -0.020439 -0.010171 -0.173824      4.000000
 -0.040878 -0.020341 -0.208589      4.000000
 -0.051084 -0.030540 -0.208589      4.000000
 -0.061289 -0.040739 -0.208589      4.000000
 -0.071495 -0.050938 -0.208589      4.000000
 -0.081700 -0.061137 -0.208589      4.000000
 -0.091906 -0.071336 -0.208589      4.000000
 -0.000057  0.020455 -0.208589      4.000000
 -0.010262  0.010256 -0.208589      4.000000
 -0.020468  0.000057 -0.208589      4.000000
 -0.030673 -0.010142 -0.208589      4.000000
 -0.051112 -0.020313 -0.243353      4.000000
 -0.061318 -0.030512 -0.243353      4.000000
 -0.071523 -0.040711 -0.243353      4.000000
 -0.081729 -0.050910 -0.243353      4.000000
 -0.091934 -0.061109 -0.243353      4.000000
 -0.102140 -0.071308 -0.243353      4.000000
 -0.010290  0.020483 -0.243353      4.000000
 -0.020496  0.010284 -0.243353      4.000000
 -0.030701  0.000085 -0.243353      4.000000
 -0.040907 -0.010114 -0.243353      4.000000
  0.040992 -0.020568  0.069530      4.000000
  0.030786 -0.030767  0.069530      4.000000
  0.020581 -0.040966  0.069530      4.000000
  0.010375 -0.051165  0.069530      4.000000
  0.000170 -0.061364  0.069530      4.000000
 -0.010036 -0.071563  0.069530      4.000000
  0.081813  0.020228  0.069530      4.000000
  0.071608  0.010029  0.069530      4.000000
  0.061403 -0.000170  0.069530      4.000000
  0.051197 -0.010369  0.069530      4.000000
  0.030758 -0.020540  0.034765      4.000000
  0.020552 -0.030739  0.034765      4.000000
  0.010347 -0.040937  0.034765      4.000000
  0.000142 -0.051136  0.034765      4.000000
 -0.010064 -0.061335  0.034765      4.000000
 -0.020269 -0.071534  0.034765      4.000000
  0.071580  0.020256  0.034765      4.000000
  0.061374  0.010057  0.034765      4.000000
  0.051169 -0.000142  0.034765      4.000000
  0.040963 -0.010341  0.034765      4.000000
  0.020524 -0.020511  0.000000      2.000000
  0.010319 -0.030710  0.000000      2.000000
  0.000113 -0.040909  0.000000      2.000000
 -0.010092 -0.051108  0.000000      2.000000
 -0.020298 -0.061307  0.000000      2.000000
 -0.030503 -0.071506 -0.000000      2.000000
  0.061346  0.020285 -0.000000      2.000000
  0.051141  0.010086 -0.000000      2.000000
  0.040935 -0.000113  0.000000      2.000000
  0.030730 -0.010312  0.000000      2.000000
 -0.030616 -0.030597 -0.208589      4.000000
 -0.040822 -0.040796 -0.208589      4.000000
 -0.051027 -0.050995 -0.208589      2.000000
 -0.081644 -0.081592 -0.208589      4.000000
  0.010205  0.010199 -0.208589      4.000000
  0.000000  0.000000 -0.208589      2.000000
 -0.040850 -0.030569 -0.243353      4.000000
 -0.051056 -0.040767 -0.243353      4.000000
 -0.061261 -0.050966 -0.243353      4.000000
 -0.071467 -0.061165 -0.243353      4.000000
 -0.081672 -0.071364 -0.243353      4.000000
 -0.091877 -0.081563 -0.243353      4.000000
 -0.000028  0.010227 -0.243353      4.000000
 -0.010234  0.000028 -0.243353      4.000000
 -0.020439 -0.010171 -0.243353      4.000000
 -0.030645 -0.020370 -0.243353      4.000000
 -0.051084 -0.030540 -0.278118      4.000000
 -0.061289 -0.040739 -0.278118      4.000000
 -0.071495 -0.050938 -0.278118      4.000000
 -0.081700 -0.061137 -0.278118      4.000000
 -0.091906 -0.071336 -0.278118      4.000000
 -0.102111 -0.081535 -0.278118      4.000000
 -0.010262  0.010256 -0.278118      4.000000
 -0.020468  0.000057 -0.278118      4.000000
 -0.030673 -0.010142 -0.278118      4.000000
 -0.040878 -0.020341 -0.278118      4.000000
  0.041020 -0.030795  0.034765      4.000000
  0.030814 -0.040994  0.034765      4.000000
  0.020609 -0.051193  0.034765      4.000000
  0.010404 -0.061392  0.034765      4.000000
  0.000198 -0.071591  0.034765      4.000000
 -0.010007 -0.081790  0.034765      4.000000
  0.081842  0.010001  0.034765      4.000000
  0.071636 -0.000198  0.034765      4.000000
  0.061431 -0.010397  0.034765      4.000000
  0.051225 -0.020596  0.034765      4.000000
  0.030786 -0.030767 -0.000000      2.000000
  0.020581 -0.040966 -0.000000      2.000000
  0.010375 -0.051165  0.000000      2.000000
  0.000170 -0.061364  0.000000      2.000000
 -0.010036 -0.071563 -0.000000      2.000000
 -0.020241 -0.081762  0.000000      2.000000
  0.071608  0.010029 -0.000000      2.000000
  0.061403 -0.000170 -0.000000      2.000000
  0.051197 -0.010369 -0.000000      2.000000
  0.040992 -0.020568 -0.000000      2.000000
 -0.040822 -0.040796 -0.278118      4.000000
 -0.051027 -0.050995 -0.278118      2.000000
 -0.071438 -0.071393 -0.278118      4.000000
 -0.081644 -0.081592 -0.278118      4.000000
 -0.091849 -0.091791 -0.278118      4.000000
  0.000000 -0.000000 -0.278118      2.000000
 -0.051056 -0.040767 -0.312883      4.000000
 -0.061261 -0.050966 -0.312883      4.000000
 -0.071467 -0.061165 -0.312883      4.000000
 -0.081672 -0.071364 -0.312883      4.000000
 -0.091877 -0.081563 -0.312883      4.000000
 -0.102083 -0.091762 -0.312883      4.000000
 -0.010234  0.000028 -0.312883      4.000000
 -0.020439 -0.010171 -0.312883      4.000000
 -0.030645 -0.020370 -0.312883      4.000000
 -0.040850 -0.030569 -0.312883      4.000000
  0.041048 -0.041022  0.000000      2.000000
  0.030843 -0.051221  0.000000      2.000000
  0.020637 -0.061420  0.000000      2.000000
  0.010432 -0.071619 -0.000000      2.000000
  0.000226 -0.081818  0.000000      2.000000
 -0.009979 -0.092017  0.000000      2.000000
  0.081870 -0.000227  0.000000      2.000000
  0.071665 -0.010426 -0.000000      2.000000
  0.061459 -0.020625  0.000000      2.000000
  0.051254 -0.030824  0.000000      2.000000
 -0.051027 -0.050995 -0.347648      1.000000
 -0.061233 -0.061194 -0.347648      2.000000
 -0.071438 -0.071393 -0.347648      2.000000
 -0.081644 -0.081592 -0.347648      2.000000
 -0.091849 -0.091791 -0.347648      2.000000
 -0.102055 -0.101990 -0.347648      1.000000
 
 TETIRR: Found   2998 inequivalent tetrahedra from     6000


--------------------------------------------------------------------------------------------------------




 Dimension of arrays:
   k-points           NKPTS =    282   k-points in BZ     NKDIM =    282   number of bands    NBANDS=     48
   number of dos      NEDOS =    301   number of ions     NIONS =     12
   non local maximal  LDIM  =      6   non local SUM 2l+1 LMDIM =     18
   total plane-waves  NPLWV =  64000
   max r-space proj   IRMAX =      1   max aug-charges    IRDMAX=  17320
   dimension x,y,z NGX =    40 NGY =   40 NGZ =   40
   dimension x,y,z NGXF=    80 NGYF=   80 NGZF=   80
   support grid    NGXF=    80 NGYF=   80 NGZF=   80
   ions per type =               8   4
 NGX,Y,Z   is equivalent  to a cutoff of   9.39,  9.44,  9.44 a.u.
 NGXF,Y,Z  is equivalent  to a cutoff of  18.79, 18.89, 18.89 a.u.


 I would recommend the setting:
   dimension x,y,z NGX =    39 NGY =   39 NGZ =   39
 SYSTEM =  (Mn O2)8  (I4/m) ~  (Pearson            
 POSCAR =  (Mn O2)8  (I4/m) ~  (Pearson #1102438)_1

 Startparameter for this run:
   NWRITE =      1    write-flag & timer
   PREC   = normal    normal or accurate (medium, high low for compatibility)
   ISTART =      0    job   : 0-new  1-cont  2-samecut
   ICHARG =     11    charge: 1-file 2-atom 10-const
   ISPIN  =      2    spin polarized calculation?
   LNONCOLLINEAR =      F non collinear calculations
   LSORBIT =      F    spin-orbit coupling
   INIWAV =      1    electr: 0-lowe 1-rand  2-diag
   LASPH  =      F    aspherical Exc in radial PAW
   METAGGA=      F    non-selfconsistent MetaGGA calc.

 Electronic Relaxation 1
   ENCUT  =  520.0 eV  38.22 Ry    6.18 a.u.  13.16 13.09 13.09*2*pi/ulx,y,z
   ENINI  =  520.0     initial cutoff
   ENAUG  =  605.4 eV  augmentation charge cutoff
   NELM   =     60;   NELMIN=  2; NELMDL= -5     # of ELM steps 
   EDIFF  = 0.1E-03   stopping-criterion for ELM
   LREAL  =      F    real-space projection
   NLSPLINE    = F    spline interpolate recip. space projectors
   LCOMPAT=      F    compatible to vasp.4.4
   GGA_COMPAT  = T    GGA compatible to vasp.4.4-vasp.4.6
   LMAXPAW     = -100 max onsite density
   LMAXMIX     =    4 max onsite mixed and CHGCAR
   VOSKOWN=      1    Vosko Wilk Nusair interpolation
   ROPT   =    0.00000   0.00000
 Ionic relaxation
   EDIFFG = 0.1E-02   stopping-criterion for IOM
   NSW    =      0    number of steps for IOM
   NBLOCK =      1;   KBLOCK =      1    inner block; outer block 
   IBRION =     -1    ionic relax: 0-MD 1-quasi-New 2-CG
   NFREE  =      0    steps in history (QN), initial steepest desc. (CG)
   ISIF   =      1    stress and relaxation
   IWAVPR =     10    prediction:  0-non 1-charg 2-wave 3-comb
   ISYM   =      2    0-nonsym 1-usesym 2-fastsym
   LCORR  =      T    Harris-Foulkes like correction to forces

   POTIM  = 0.5000    time-step for ionic-motion
   TEIN   =    0.0    initial temperature
   TEBEG  =    0.0;   TEEND  =   0.0 temperature during run
   SMASS  =  -3.00    Nose mass-parameter (am)
   estimated Nose-frequenzy (Omega)   =  0.10E-29 period in steps =****** mass=  -0.115E-26a.u.
   SCALEE = 1.0000    scale energy and forces
   NPACO  =    256;   APACO  = 16.0  distance and # of slots for P.C.
   PSTRESS=    0.0 pullay stress

  Mass of Ions in am
   POMASS =  16.00 54.94
  Ionic Valenz
   ZVAL   =   6.00  7.00
  Atomic Wigner-Seitz radii
   RWIGS  =  -1.00 -1.00
  virtual crystal weights 
   VCA    =   1.00  1.00
   NELECT =      76.0000    total number of electrons
   NUPDOWN=      -1.0000    fix difference up-down

 DOS related values:
   EMIN   =  10.00;   EMAX   =-10.00  energy-range for DOS
   EFERMI =   0.00
   ISMEAR =    -5;   SIGMA  =   0.20  broadening in eV -4-tet -1-fermi 0-gaus

 Electronic relaxation 2 (details)
   IALGO  =     38    algorithm
   LDIAG  =      T    sub-space diagonalisation (order eigenvalues)
   LSUBROT=      T    optimize rotation matrix (better conditioning)
   TURBO    =      0    0=normal 1=particle mesh
   IRESTART =      0    0=no restart 2=restart with 2 vectors
   NREBOOT  =      0    no. of reboots
   NMIN     =      0    reboot dimension
   EREF     =   0.00    reference energy to select bands
   IMIX   =      4    mixing-type and parameters
     AMIX     =   0.40;   BMIX     =  1.00
     AMIX_MAG =   1.60;   BMIX_MAG =  1.00
     AMIN     =   0.10
     WC   =   100.;   INIMIX=   1;  MIXPRE=   1;  MAXMIX= -45

 Intra band minimization:
   WEIMIN = 0.0000     energy-eigenvalue tresh-hold
   EBREAK =  0.52E-06  absolut break condition
   DEPER  =   0.30     relativ break condition  

   TIME   =   0.40     timestep for ELM

  volume/ion in A,a.u.               =      11.45        77.28
  Fermi-wavevector in a.u.,A,eV,Ry     =   1.343796  2.539406 24.569221  1.805787
  Thomas-Fermi vector in A             =   2.471841
 
 Write flags
   LWAVE  =      F    write WAVECAR
   LCHARG =      T    write CHGCAR
   LVTOT  =      F    write LOCPOT, total local potential
   LVHAR  =      F    write LOCPOT, Hartree potential only
   LELF   =      F    write electronic localiz. function (ELF)
   LORBIT =     11    0 simple, 1 ext, 2 COOP (PROOUT)


 Dipole corrections
   LMONO  =      F    monopole corrections only (constant potential shift)
   LDIPOL =      F    correct potential (dipole corrections)
   IDIPOL =      0    1-x, 2-y, 3-z, 4-all directions 
   EPSILON=  1.0000000 bulk dielectric constant

 LDA+U is selected, type is set to LDAUTYPE =  2
   angular momentum for each species LDAUL =    -1    2
   U (eV)           for each species LDAUU =   0.0  3.9
   J (eV)           for each species LDAUJ =   0.0  0.0
 Exchange correlation treatment:
   GGA     =    PS    GGA type
   LEXCH   =    14    internal setting for exchange type
   VOSKOWN=      1    Vosko Wilk Nusair interpolation
   LHFCALC =     F    Hartree Fock is set to
   LHFONE  =     F    Hartree Fock one center treatment
   AEXX    =    0.0000 exact exchange contribution

 Linear response parameters
   LEPSILON=     F    determine dielectric tensor
   LRPA    =     F    only Hartree local field effects (RPA)
   LNABLA  =     F    use nabla operator in PAW spheres
   LVEL    =     F    velocity operator in full k-point grid
   LINTERFAST=   F  fast interpolation
   KINTER  =     0    interpolate to denser k-point grid
   CSHIFT  =0.1000    complex shift for real part using Kramers Kronig
   OMEGAMAX=  -1.0    maximum frequency
   DEG_THRESHOLD= 0.2000000E-02 threshold for treating states as degnerate
   RTIME   =    0.100 relaxation time in fs

 Orbital magnetization related:
   ORBITALMAG=     F  switch on orbital magnetization
   LCHIMAG   =     F  perturbation theory with respect to B field
   DQ        =  0.001000  dq finite difference perturbation B field



--------------------------------------------------------------------------------------------------------


 Static calculation
 charge density and potential remain constant during run
 spin polarized calculation
 Variant of blocked Davidson
 Davidson routine will perform the subspace rotation
 perform sub-space diagonalisation
    after iterative eigenvector-optimisation
 no mixing
 using additional bands           10
 reciprocal scheme for non local part
 use partial core corrections
 calculate Harris-corrections to forces 
   (improved forces if not selfconsistent)
 use gradient corrections 
 WARNING: stress and forces are not correct
  (second derivative of E(xc) not defined)
 use of overlap-Matrix (Vanderbilt PP)
 Fermi weights with tetrahedron method with Bloechl corrections


--------------------------------------------------------------------------------------------------------


  energy-cutoff  :      520.00
  volume of cell :      137.42
      direct lattice vectors                 reciprocal lattice vectors
    -4.899361902 -4.902438859  1.438238339    -0.102054614 -0.101989546  0.000000000
    -4.872290406  4.875398874 -1.438238339    -0.102337622  0.000283338 -0.347647526
     4.872290406 -4.875398874 -1.438238339     0.000283008 -0.102272884 -0.347647526

  length of vectors
     7.078572125  7.041111950  7.041111950     0.144281016  0.362397394  0.362379118


 
 k-points in units of 2pi/SCALE and weight: Automatic mesh                          
   0.00000000  0.00000000  0.00000000       0.001
  -0.01020546 -0.01019895  0.00000000       0.002
  -0.02041092 -0.02039791  0.00000000       0.002
  -0.03061638 -0.03059686  0.00000000       0.002
  -0.04082185 -0.04079582  0.00000000       0.002
  -0.05102731 -0.05099477  0.00000000       0.001
  -0.01023376  0.00002833 -0.03476475       0.004
  -0.02043922 -0.01017062 -0.03476475       0.004
  -0.03064469 -0.02036958 -0.03476475       0.004
  -0.04085015 -0.03056853 -0.03476475       0.004
  -0.05105561 -0.04076748 -0.03476475       0.004
  -0.06126107 -0.05096644 -0.03476475       0.004
   0.03058808  0.04082415 -0.03476475       0.004
   0.02038262  0.03062520 -0.03476475       0.004
   0.01017716  0.02042624 -0.03476475       0.004
  -0.00002830  0.01022729 -0.03476475       0.004
  -0.02046752  0.00005667 -0.06952951       0.004
  -0.03067299 -0.01014229 -0.06952951       0.004
  -0.04087845 -0.02034124 -0.06952951       0.004
  -0.05108391 -0.03054020 -0.06952951       0.004
  -0.06128937 -0.04073915 -0.06952951       0.004
  -0.07149483 -0.05093811 -0.06952951       0.004
   0.02035432  0.04085249 -0.06952951       0.004
   0.01014886  0.03065353 -0.06952951       0.004
  -0.00005660  0.02045458 -0.06952951       0.004
  -0.01026206  0.01025562 -0.06952951       0.004
  -0.03070129  0.00008500 -0.10429426       0.004
  -0.04090675 -0.01011395 -0.10429426       0.004
  -0.05111221 -0.02031291 -0.10429426       0.004
  -0.06131767 -0.03051186 -0.10429426       0.004
  -0.07152313 -0.04071082 -0.10429426       0.004
  -0.08172859 -0.05090977 -0.10429426       0.004
   0.01012056  0.04088082 -0.10429426       0.004
  -0.00008490  0.03068187 -0.10429426       0.004
  -0.01029036  0.02048291 -0.10429426       0.004
  -0.02049583  0.01028396 -0.10429426       0.004
  -0.04093505  0.00011334 -0.13905901       0.004
  -0.05114051 -0.01008562 -0.13905901       0.004
  -0.06134597 -0.02028457 -0.13905901       0.004
  -0.07155143 -0.03048353 -0.13905901       0.004
  -0.08175689 -0.04068248 -0.13905901       0.004
  -0.09196236 -0.05088144 -0.13905901       0.004
  -0.00011320  0.04090915 -0.13905901       0.004
  -0.01031866  0.03071020 -0.13905901       0.004
  -0.02052413  0.02051124 -0.13905901       0.004
  -0.03072959  0.01031229 -0.13905901       0.004
  -0.05116881  0.00014167 -0.17382376       0.002
  -0.06137427 -0.01005729 -0.17382376       0.004
  -0.07157973 -0.02025624 -0.17382376       0.004
  -0.08178520 -0.03045519 -0.17382376       0.004
  -0.09199066 -0.04065415 -0.17382376       0.004
  -0.10219612 -0.05085310 -0.17382376       0.002
  -0.01020546 -0.01019895 -0.06952951       0.004
  -0.02041092 -0.02039791 -0.06952951       0.004
  -0.03061638 -0.03059686 -0.06952951       0.004
  -0.04082185 -0.04079582 -0.06952951       0.004
  -0.05102731 -0.05099477 -0.06952951       0.002
   0.00000000  0.00000000 -0.06952951       0.002
  -0.02043922 -0.01017062 -0.10429426       0.004
  -0.03064469 -0.02036958 -0.10429426       0.004
  -0.04085015 -0.03056853 -0.10429426       0.004
  -0.05105561 -0.04076748 -0.10429426       0.004
  -0.06126107 -0.05096644 -0.10429426       0.004
  -0.07146653 -0.06116539 -0.10429426       0.004
   0.02038262  0.03062520 -0.10429426       0.004
   0.01017716  0.02042624 -0.10429426       0.004
  -0.00002830  0.01022729 -0.10429426       0.004
  -0.01023376  0.00002833 -0.10429426       0.004
  -0.03067299 -0.01014229 -0.13905901       0.004
  -0.04087845 -0.02034124 -0.13905901       0.004
  -0.05108391 -0.03054020 -0.13905901       0.004
  -0.06128937 -0.04073915 -0.13905901       0.004
  -0.07149483 -0.05093811 -0.13905901       0.004
  -0.08170029 -0.06113706 -0.13905901       0.004
   0.01014886  0.03065353 -0.13905901       0.004
  -0.00005660  0.02045458 -0.13905901       0.004
  -0.01026206  0.01025562 -0.13905901       0.004
  -0.02046752  0.00005667 -0.13905901       0.004
  -0.04090675 -0.01011395 -0.17382376       0.004
  -0.05111221 -0.02031291 -0.17382376       0.004
  -0.06131767 -0.03051186 -0.17382376       0.004
  -0.07152313 -0.04071082 -0.17382376       0.004
  -0.08172859 -0.05090977 -0.17382376       0.004
  -0.09193406 -0.06110873 -0.17382376       0.004
  -0.00008490  0.03068187 -0.17382376       0.004
  -0.01029036  0.02048291 -0.17382376       0.004
  -0.02049583  0.01028396 -0.17382376       0.004
  -0.03070129  0.00008500 -0.17382376       0.004
  -0.05114051 -0.01008562 -0.20858852       0.004
  -0.06134597 -0.02028457 -0.20858852       0.004
  -0.07155143 -0.03048353 -0.20858852       0.004
  -0.08175689 -0.04068248 -0.20858852       0.004
  -0.09196236 -0.05088144 -0.20858852       0.004
  -0.10216782 -0.06108039 -0.20858852       0.004
  -0.01031866  0.03071020 -0.20858852       0.004
  -0.02052413  0.02051124 -0.20858852       0.004
  -0.03072959  0.01031229 -0.20858852       0.004
  -0.04093505  0.00011334 -0.20858852       0.004
   0.04096335 -0.01034062  0.10429426       0.004
   0.03075789 -0.02053958  0.10429426       0.004
   0.02055243 -0.03073853  0.10429426       0.004
   0.01034697 -0.04093749  0.10429426       0.004
   0.00014150 -0.05113644  0.10429426       0.004
  -0.01006396 -0.06133540  0.10429426       0.004
   0.08178520  0.03045519  0.10429426       0.004
   0.07157973  0.02025624  0.10429426       0.004
   0.06137427  0.01005729  0.10429426       0.004
   0.05116881 -0.00014167  0.10429426       0.004
   0.03072959 -0.01031229  0.06952951       0.004
   0.02052413 -0.02051124  0.06952951       0.004
   0.01031866 -0.03071020  0.06952951       0.004
   0.00011320 -0.04090915  0.06952951       0.004
  -0.01009226 -0.05110811  0.06952951       0.004
  -0.02029772 -0.06130706  0.06952951       0.004
   0.07155143  0.03048353  0.06952951       0.004
   0.06134597  0.02028457  0.06952951       0.004
   0.05114051  0.01008562  0.06952951       0.004
   0.04093505 -0.00011334  0.06952951       0.004
   0.02049583 -0.01028396  0.03476475       0.004
   0.01029036 -0.02048291  0.03476475       0.004
   0.00008490 -0.03068187  0.03476475       0.004
  -0.01012056 -0.04088082  0.03476475       0.004
  -0.02032602 -0.05107977  0.03476475       0.004
  -0.03053148 -0.06127873  0.03476475       0.004
   0.06131767  0.03051186  0.03476475       0.004
   0.05111221  0.02031291  0.03476475       0.004
   0.04090675  0.01011395  0.03476475       0.004
   0.03070129 -0.00008500  0.03476475       0.004
   0.01026206 -0.01025562  0.00000000       0.002
   0.00005660 -0.02045458 -0.00000000       0.002
  -0.01014886 -0.03065353  0.00000000       0.002
  -0.02035432 -0.04085249 -0.00000000       0.002
  -0.03055978 -0.05105144 -0.00000000       0.002
  -0.04076524 -0.06125040 -0.00000000       0.002
   0.05108391  0.03054020 -0.00000000       0.002
   0.04087845  0.02034124 -0.00000000       0.002
   0.03067299  0.01014229 -0.00000000       0.002
   0.02046752 -0.00005667  0.00000000       0.002
  -0.02041092 -0.02039791 -0.13905901       0.004
  -0.03061638 -0.03059686 -0.13905901       0.004
  -0.04082185 -0.04079582 -0.13905901       0.004
  -0.05102731 -0.05099477 -0.13905901       0.002
   0.01020546  0.01019895 -0.13905901       0.004
  -0.00000000 -0.00000000 -0.13905901       0.002
  -0.03064469 -0.02036958 -0.17382376       0.004
  -0.04085015 -0.03056853 -0.17382376       0.004
  -0.05105561 -0.04076748 -0.17382376       0.004
  -0.06126107 -0.05096644 -0.17382376       0.004
  -0.07146653 -0.06116539 -0.17382376       0.004
  -0.08167199 -0.07136435 -0.17382376       0.004
   0.01017716  0.02042624 -0.17382376       0.004
  -0.00002830  0.01022729 -0.17382376       0.004
  -0.01023376  0.00002833 -0.17382376       0.004
  -0.02043922 -0.01017062 -0.17382376       0.004
  -0.04087845 -0.02034124 -0.20858852       0.004
  -0.05108391 -0.03054020 -0.20858852       0.004
  -0.06128937 -0.04073915 -0.20858852       0.004
  -0.07149483 -0.05093811 -0.20858852       0.004
  -0.08170029 -0.06113706 -0.20858852       0.004
  -0.09190575 -0.07133601 -0.20858852       0.004
  -0.00005660  0.02045458 -0.20858852       0.004
  -0.01026206  0.01025562 -0.20858852       0.004
  -0.02046752  0.00005667 -0.20858852       0.004
  -0.03067299 -0.01014229 -0.20858852       0.004
  -0.05111221 -0.02031291 -0.24335327       0.004
  -0.06131767 -0.03051186 -0.24335327       0.004
  -0.07152313 -0.04071082 -0.24335327       0.004
  -0.08172859 -0.05090977 -0.24335327       0.004
  -0.09193406 -0.06110873 -0.24335327       0.004
  -0.10213952 -0.07130768 -0.24335327       0.004
  -0.01029036  0.02048291 -0.24335327       0.004
  -0.02049583  0.01028396 -0.24335327       0.004
  -0.03070129  0.00008500 -0.24335327       0.004
  -0.04090675 -0.01011395 -0.24335327       0.004
   0.04099165 -0.02056791  0.06952951       0.004
   0.03078619 -0.03076687  0.06952951       0.004
   0.02058073 -0.04096582  0.06952951       0.004
   0.01037527 -0.05116478  0.06952951       0.004
   0.00016980 -0.06136373  0.06952951       0.004
  -0.01003566 -0.07156268  0.06952951       0.004
   0.08181350  0.02022791  0.06952951       0.004
   0.07160803  0.01002895  0.06952951       0.004
   0.06140257 -0.00017000  0.06952951       0.004
   0.05119711 -0.01036896  0.06952951       0.004
   0.03075789 -0.02053958  0.03476475       0.004
   0.02055243 -0.03073853  0.03476475       0.004
   0.01034697 -0.04093749  0.03476475       0.004
   0.00014150 -0.05113644  0.03476475       0.004
  -0.01006396 -0.06133540  0.03476475       0.004
  -0.02026942 -0.07153435  0.03476475       0.004
   0.07157973  0.02025624  0.03476475       0.004
   0.06137427  0.01005729  0.03476475       0.004
   0.05116881 -0.00014167  0.03476475       0.004
   0.04096335 -0.01034062  0.03476475       0.004
   0.02052413 -0.02051124 -0.00000000       0.002
   0.01031866 -0.03071020 -0.00000000       0.002
   0.00011320 -0.04090915 -0.00000000       0.002
  -0.01009226 -0.05110811 -0.00000000       0.002
  -0.02029772 -0.06130706 -0.00000000       0.002
  -0.03050318 -0.07150602  0.00000000       0.002
   0.06134597  0.02028457 -0.00000000       0.002
   0.05114051  0.01008562  0.00000000       0.002
   0.04093505 -0.00011334 -0.00000000       0.002
   0.03072959 -0.01031229 -0.00000000       0.002
  -0.03061638 -0.03059686 -0.20858852       0.004
  -0.04082185 -0.04079582 -0.20858852       0.004
  -0.05102731 -0.05099477 -0.20858852       0.002
  -0.08164369 -0.08159164 -0.20858852       0.004
   0.01020546  0.01019895 -0.20858852       0.004
   0.00000000  0.00000000 -0.20858852       0.002
  -0.04085015 -0.03056853 -0.24335327       0.004
  -0.05105561 -0.04076748 -0.24335327       0.004
  -0.06126107 -0.05096644 -0.24335327       0.004
  -0.07146653 -0.06116539 -0.24335327       0.004
  -0.08167199 -0.07136435 -0.24335327       0.004
  -0.09187745 -0.08156330 -0.24335327       0.004
  -0.00002830  0.01022729 -0.24335327       0.004
  -0.01023376  0.00002833 -0.24335327       0.004
  -0.02043922 -0.01017062 -0.24335327       0.004
  -0.03064469 -0.02036958 -0.24335327       0.004
  -0.05108391 -0.03054020 -0.27811802       0.004
  -0.06128937 -0.04073915 -0.27811802       0.004
  -0.07149483 -0.05093811 -0.27811802       0.004
  -0.08170029 -0.06113706 -0.27811802       0.004
  -0.09190575 -0.07133601 -0.27811802       0.004
  -0.10211122 -0.08153497 -0.27811802       0.004
  -0.01026206  0.01025562 -0.27811802       0.004
  -0.02046752  0.00005667 -0.27811802       0.004
  -0.03067299 -0.01014229 -0.27811802       0.004
  -0.04087845 -0.02034124 -0.27811802       0.004
   0.04101995 -0.03079520  0.03476475       0.004
   0.03081449 -0.04099415  0.03476475       0.004
   0.02060903 -0.05119311  0.03476475       0.004
   0.01040357 -0.06139206  0.03476475       0.004
   0.00019811 -0.07159102  0.03476475       0.004
  -0.01000736 -0.08178997  0.03476475       0.004
   0.08184180  0.01000062  0.03476475       0.004
   0.07163634 -0.00019834  0.03476475       0.004
   0.06143087 -0.01039729  0.03476475       0.004
   0.05122541 -0.02059625  0.03476475       0.004
   0.03078619 -0.03076687  0.00000000       0.002
   0.02058073 -0.04096582  0.00000000       0.002
   0.01037527 -0.05116478  0.00000000       0.002
   0.00016980 -0.06136373 -0.00000000       0.002
  -0.01003566 -0.07156268  0.00000000       0.002
  -0.02024112 -0.08176164  0.00000000       0.002
   0.07160803  0.01002895  0.00000000       0.002
   0.06140257 -0.00017000  0.00000000       0.002
   0.05119711 -0.01036896  0.00000000       0.002
   0.04099165 -0.02056791  0.00000000       0.002
  -0.04082185 -0.04079582 -0.27811802       0.004
  -0.05102731 -0.05099477 -0.27811802       0.002
  -0.07143823 -0.07139268 -0.27811802       0.004
  -0.08164369 -0.08159164 -0.27811802       0.004
  -0.09184915 -0.09179059 -0.27811802       0.004
  -0.00000000 -0.00000000 -0.27811802       0.002
  -0.05105561 -0.04076748 -0.31288277       0.004
  -0.06126107 -0.05096644 -0.31288277       0.004
  -0.07146653 -0.06116539 -0.31288277       0.004
  -0.08167199 -0.07136435 -0.31288277       0.004
  -0.09187745 -0.08156330 -0.31288277       0.004
  -0.10208291 -0.09176226 -0.31288277       0.004
  -0.01023376  0.00002833 -0.31288277       0.004
  -0.02043922 -0.01017062 -0.31288277       0.004
  -0.03064469 -0.02036958 -0.31288277       0.004
  -0.04085015 -0.03056853 -0.31288277       0.004
   0.04104825 -0.04102249 -0.00000000       0.002
   0.03084279 -0.05122144 -0.00000000       0.002
   0.02063733 -0.06142040 -0.00000000       0.002
   0.01043187 -0.07161935  0.00000000       0.002
   0.00022641 -0.08181831 -0.00000000       0.002
  -0.00997905 -0.09201726 -0.00000000       0.002
   0.08187010 -0.00022667  0.00000000       0.002
   0.07166464 -0.01042562  0.00000000       0.002
   0.06145917 -0.02062458  0.00000000       0.002
   0.05125371 -0.03082353 -0.00000000       0.002
  -0.05102731 -0.05099477 -0.34764753       0.001
  -0.06123277 -0.06119373 -0.34764753       0.002
  -0.07143823 -0.07139268 -0.34764753       0.002
  -0.08164369 -0.08159164 -0.34764753       0.002
  -0.09184915 -0.09179059 -0.34764753       0.002
  -0.10205461 -0.10198955 -0.34764753       0.001
 
 k-points in reciprocal lattice and weights: Automatic mesh                          
   0.00000000  0.00000000  0.00000000       0.001
   0.10000000  0.00000000 -0.00000000       0.002
   0.20000000  0.00000000 -0.00000000       0.002
   0.30000000  0.00000000 -0.00000000       0.002
   0.40000000  0.00000000 -0.00000000       0.002
   0.50000000  0.00000000 -0.00000000       0.001
  -0.00000000  0.10000000  0.00000000       0.004
   0.10000000  0.10000000 -0.00000000       0.004
   0.20000000  0.10000000  0.00000000       0.004
   0.30000000  0.10000000 -0.00000000       0.004
   0.40000000  0.10000000 -0.00000000       0.004
   0.50000000  0.10000000 -0.00000000       0.004
  -0.40000000  0.10000000  0.00000000       0.004
  -0.30000000  0.10000000  0.00000000       0.004
  -0.20000000  0.10000000 -0.00000000       0.004
  -0.10000000  0.10000000  0.00000000       0.004
  -0.00000000  0.20000000 -0.00000000       0.004
   0.10000000  0.20000000 -0.00000000       0.004
   0.20000000  0.20000000 -0.00000000       0.004
   0.30000000  0.20000000 -0.00000000       0.004
   0.40000000  0.20000000 -0.00000000       0.004
   0.50000000  0.20000000 -0.00000000       0.004
  -0.40000000  0.20000000 -0.00000000       0.004
  -0.30000000  0.20000000  0.00000000       0.004
  -0.20000000  0.20000000 -0.00000000       0.004
  -0.10000000  0.20000000 -0.00000000       0.004
  -0.00000000  0.30000000  0.00000000       0.004
   0.10000000  0.30000000 -0.00000000       0.004
   0.20000000  0.30000000  0.00000000       0.004
   0.30000000  0.30000000 -0.00000000       0.004
   0.40000000  0.30000000 -0.00000000       0.004
   0.50000000  0.30000000 -0.00000000       0.004
  -0.40000000  0.30000000  0.00000000       0.004
  -0.30000000  0.30000000  0.00000000       0.004
  -0.20000000  0.30000000  0.00000000       0.004
  -0.10000000  0.30000000  0.00000000       0.004
  -0.00000000  0.40000000 -0.00000000       0.004
   0.10000000  0.40000000 -0.00000000       0.004
   0.20000000  0.40000000 -0.00000000       0.004
   0.30000000  0.40000000 -0.00000000       0.004
   0.40000000  0.40000000 -0.00000000       0.004
   0.50000000  0.40000000 -0.00000000       0.004
  -0.40000000  0.40000000 -0.00000000       0.004
  -0.30000000  0.40000000  0.00000000       0.004
  -0.20000000  0.40000000 -0.00000000       0.004
  -0.10000000  0.40000000 -0.00000000       0.004
  -0.00000000  0.50000000 -0.00000000       0.002
   0.10000000  0.50000000 -0.00000000       0.004
   0.20000000  0.50000000  0.00000000       0.004
   0.30000000  0.50000000 -0.00000000       0.004
   0.40000000  0.50000000 -0.00000000       0.004
   0.50000000  0.50000000 -0.00000000       0.002
  -0.00000000  0.10000000  0.10000000       0.004
   0.10000000  0.10000000  0.10000000       0.004
   0.20000000  0.10000000  0.10000000       0.004
   0.30000000  0.10000000  0.10000000       0.004
   0.40000000  0.10000000  0.10000000       0.002
  -0.10000000  0.10000000  0.10000000       0.002
  -0.00000000  0.20000000  0.10000000       0.004
   0.10000000  0.20000000  0.10000000       0.004
   0.20000000  0.20000000  0.10000000       0.004
   0.30000000  0.20000000  0.10000000       0.004
   0.40000000  0.20000000  0.10000000       0.004
   0.50000000  0.20000000  0.10000000       0.004
  -0.40000000  0.20000000  0.10000000       0.004
  -0.30000000  0.20000000  0.10000000       0.004
  -0.20000000  0.20000000  0.10000000       0.004
  -0.10000000  0.20000000  0.10000000       0.004
  -0.00000000  0.30000000  0.10000000       0.004
   0.10000000  0.30000000  0.10000000       0.004
   0.20000000  0.30000000  0.10000000       0.004
   0.30000000  0.30000000  0.10000000       0.004
   0.40000000  0.30000000  0.10000000       0.004
   0.50000000  0.30000000  0.10000000       0.004
  -0.40000000  0.30000000  0.10000000       0.004
  -0.30000000  0.30000000  0.10000000       0.004
  -0.20000000  0.30000000  0.10000000       0.004
  -0.10000000  0.30000000  0.10000000       0.004
   0.00000000  0.40000000  0.10000000       0.004
   0.10000000  0.40000000  0.10000000       0.004
   0.20000000  0.40000000  0.10000000       0.004
   0.30000000  0.40000000  0.10000000       0.004
   0.40000000  0.40000000  0.10000000       0.004
   0.50000000  0.40000000  0.10000000       0.004
  -0.40000000  0.40000000  0.10000000       0.004
  -0.30000000  0.40000000  0.10000000       0.004
  -0.20000000  0.40000000  0.10000000       0.004
  -0.10000000  0.40000000  0.10000000       0.004
  -0.00000000  0.50000000  0.10000000       0.004
   0.10000000  0.50000000  0.10000000       0.004
   0.20000000  0.50000000  0.10000000       0.004
   0.30000000  0.50000000  0.10000000       0.004
   0.40000000  0.50000000  0.10000000       0.004
   0.50000000  0.50000000  0.10000000       0.004
  -0.40000000  0.50000000  0.10000000       0.004
  -0.30000000  0.50000000  0.10000000       0.004
  -0.20000000  0.50000000  0.10000000       0.004
  -0.10000000  0.50000000  0.10000000       0.004
   0.00000000 -0.40000000  0.10000000       0.004
   0.10000000 -0.40000000  0.10000000       0.004
   0.20000000 -0.40000000  0.10000000       0.004
   0.30000000 -0.40000000  0.10000000       0.004
   0.40000000 -0.40000000  0.10000000       0.004
   0.50000000 -0.40000000  0.10000000       0.004
  -0.40000000 -0.40000000  0.10000000       0.004
  -0.30000000 -0.40000000  0.10000000       0.004
  -0.20000000 -0.40000000  0.10000000       0.004
  -0.10000000 -0.40000000  0.10000000       0.004
   0.00000000 -0.30000000  0.10000000       0.004
   0.10000000 -0.30000000  0.10000000       0.004
   0.20000000 -0.30000000  0.10000000       0.004
   0.30000000 -0.30000000  0.10000000       0.004
   0.40000000 -0.30000000  0.10000000       0.004
   0.50000000 -0.30000000  0.10000000       0.004
  -0.40000000 -0.30000000  0.10000000       0.004
  -0.30000000 -0.30000000  0.10000000       0.004
  -0.20000000 -0.30000000  0.10000000       0.004
  -0.10000000 -0.30000000  0.10000000       0.004
  -0.00000000 -0.20000000  0.10000000       0.004
   0.10000000 -0.20000000  0.10000000       0.004
   0.20000000 -0.20000000  0.10000000       0.004
   0.30000000 -0.20000000  0.10000000       0.004
   0.40000000 -0.20000000  0.10000000       0.004
   0.50000000 -0.20000000  0.10000000       0.004
  -0.40000000 -0.20000000  0.10000000       0.004
  -0.30000000 -0.20000000  0.10000000       0.004
  -0.20000000 -0.20000000  0.10000000       0.004
  -0.10000000 -0.20000000  0.10000000       0.004
  -0.00000000 -0.10000000  0.10000000       0.002
   0.10000000 -0.10000000  0.10000000       0.002
   0.20000000 -0.10000000  0.10000000       0.002
   0.30000000 -0.10000000  0.10000000       0.002
   0.40000000 -0.10000000  0.10000000       0.002
   0.50000000 -0.10000000  0.10000000       0.002
  -0.40000000 -0.10000000  0.10000000       0.002
  -0.30000000 -0.10000000  0.10000000       0.002
  -0.20000000 -0.10000000  0.10000000       0.002
  -0.10000000 -0.10000000  0.10000000       0.002
  -0.00000000  0.20000000  0.20000000       0.004
   0.10000000  0.20000000  0.20000000       0.004
   0.20000000  0.20000000  0.20000000       0.004
   0.30000000  0.20000000  0.20000000       0.002
  -0.30000000  0.20000000  0.20000000       0.004
  -0.20000000  0.20000000  0.20000000       0.002
  -0.00000000  0.30000000  0.20000000       0.004
   0.10000000  0.30000000  0.20000000       0.004
   0.20000000  0.30000000  0.20000000       0.004
   0.30000000  0.30000000  0.20000000       0.004
   0.40000000  0.30000000  0.20000000       0.004
   0.50000000  0.30000000  0.20000000       0.004
  -0.40000000  0.30000000  0.20000000       0.004
  -0.30000000  0.30000000  0.20000000       0.004
  -0.20000000  0.30000000  0.20000000       0.004
  -0.10000000  0.30000000  0.20000000       0.004
  -0.00000000  0.40000000  0.20000000       0.004
   0.10000000  0.40000000  0.20000000       0.004
   0.20000000  0.40000000  0.20000000       0.004
   0.30000000  0.40000000  0.20000000       0.004
   0.40000000  0.40000000  0.20000000       0.004
   0.50000000  0.40000000  0.20000000       0.004
  -0.40000000  0.40000000  0.20000000       0.004
  -0.30000000  0.40000000  0.20000000       0.004
  -0.20000000  0.40000000  0.20000000       0.004
  -0.10000000  0.40000000  0.20000000       0.004
  -0.00000000  0.50000000  0.20000000       0.004
   0.10000000  0.50000000  0.20000000       0.004
   0.20000000  0.50000000  0.20000000       0.004
   0.30000000  0.50000000  0.20000000       0.004
   0.40000000  0.50000000  0.20000000       0.004
   0.50000000  0.50000000  0.20000000       0.004
  -0.40000000  0.50000000  0.20000000       0.004
  -0.30000000  0.50000000  0.20000000       0.004
  -0.20000000  0.50000000  0.20000000       0.004
  -0.10000000  0.50000000  0.20000000       0.004
   0.00000000 -0.40000000  0.20000000       0.004
   0.10000000 -0.40000000  0.20000000       0.004
   0.20000000 -0.40000000  0.20000000       0.004
   0.30000000 -0.40000000  0.20000000       0.004
   0.40000000 -0.40000000  0.20000000       0.004
   0.50000000 -0.40000000  0.20000000       0.004
  -0.40000000 -0.40000000  0.20000000       0.004
  -0.30000000 -0.40000000  0.20000000       0.004
  -0.20000000 -0.40000000  0.20000000       0.004
  -0.10000000 -0.40000000  0.20000000       0.004
  -0.00000000 -0.30000000  0.20000000       0.004
   0.10000000 -0.30000000  0.20000000       0.004
   0.20000000 -0.30000000  0.20000000       0.004
   0.30000000 -0.30000000  0.20000000       0.004
   0.40000000 -0.30000000  0.20000000       0.004
   0.50000000 -0.30000000  0.20000000       0.004
  -0.40000000 -0.30000000  0.20000000       0.004
  -0.30000000 -0.30000000  0.20000000       0.004
  -0.20000000 -0.30000000  0.20000000       0.004
  -0.10000000 -0.30000000  0.20000000       0.004
  -0.00000000 -0.20000000  0.20000000       0.002
   0.10000000 -0.20000000  0.20000000       0.002
   0.20000000 -0.20000000  0.20000000       0.002
   0.30000000 -0.20000000  0.20000000       0.002
   0.40000000 -0.20000000  0.20000000       0.002
   0.50000000 -0.20000000  0.20000000       0.002
  -0.40000000 -0.20000000  0.20000000       0.002
  -0.30000000 -0.20000000  0.20000000       0.002
  -0.20000000 -0.20000000  0.20000000       0.002
  -0.10000000 -0.20000000  0.20000000       0.002
  -0.00000000  0.30000000  0.30000000       0.004
   0.10000000  0.30000000  0.30000000       0.004
   0.20000000  0.30000000  0.30000000       0.002
   0.50000000  0.30000000  0.30000000       0.004
  -0.40000000  0.30000000  0.30000000       0.004
  -0.30000000  0.30000000  0.30000000       0.002
   0.00000000  0.40000000  0.30000000       0.004
   0.10000000  0.40000000  0.30000000       0.004
   0.20000000  0.40000000  0.30000000       0.004
   0.30000000  0.40000000  0.30000000       0.004
   0.40000000  0.40000000  0.30000000       0.004
   0.50000000  0.40000000  0.30000000       0.004
  -0.40000000  0.40000000  0.30000000       0.004
  -0.30000000  0.40000000  0.30000000       0.004
  -0.20000000  0.40000000  0.30000000       0.004
  -0.10000000  0.40000000  0.30000000       0.004
   0.00000000  0.50000000  0.30000000       0.004
   0.10000000  0.50000000  0.30000000       0.004
   0.20000000  0.50000000  0.30000000       0.004
   0.30000000  0.50000000  0.30000000       0.004
   0.40000000  0.50000000  0.30000000       0.004
   0.50000000  0.50000000  0.30000000       0.004
  -0.40000000  0.50000000  0.30000000       0.004
  -0.30000000  0.50000000  0.30000000       0.004
  -0.20000000  0.50000000  0.30000000       0.004
  -0.10000000  0.50000000  0.30000000       0.004
   0.00000000 -0.40000000  0.30000000       0.004
   0.10000000 -0.40000000  0.30000000       0.004
   0.20000000 -0.40000000  0.30000000       0.004
   0.30000000 -0.40000000  0.30000000       0.004
   0.40000000 -0.40000000  0.30000000       0.004
   0.50000000 -0.40000000  0.30000000       0.004
  -0.40000000 -0.40000000  0.30000000       0.004
  -0.30000000 -0.40000000  0.30000000       0.004
  -0.20000000 -0.40000000  0.30000000       0.004
  -0.10000000 -0.40000000  0.30000000       0.004
  -0.00000000 -0.30000000  0.30000000       0.002
   0.10000000 -0.30000000  0.30000000       0.002
   0.20000000 -0.30000000  0.30000000       0.002
   0.30000000 -0.30000000  0.30000000       0.002
   0.40000000 -0.30000000  0.30000000       0.002
   0.50000000 -0.30000000  0.30000000       0.002
  -0.40000000 -0.30000000  0.30000000       0.002
  -0.30000000 -0.30000000  0.30000000       0.002
  -0.20000000 -0.30000000  0.30000000       0.002
  -0.10000000 -0.30000000  0.30000000       0.002
  -0.00000000  0.40000000  0.40000000       0.004
   0.10000000  0.40000000  0.40000000       0.002
   0.30000000  0.40000000  0.40000000       0.004
   0.40000000  0.40000000  0.40000000       0.004
   0.50000000  0.40000000  0.40000000       0.004
  -0.40000000  0.40000000  0.40000000       0.002
  -0.00000000  0.50000000  0.40000000       0.004
   0.10000000  0.50000000  0.40000000       0.004
   0.20000000  0.50000000  0.40000000       0.004
   0.30000000  0.50000000  0.40000000       0.004
   0.40000000  0.50000000  0.40000000       0.004
   0.50000000  0.50000000  0.40000000       0.004
  -0.40000000  0.50000000  0.40000000       0.004
  -0.30000000  0.50000000  0.40000000       0.004
  -0.20000000  0.50000000  0.40000000       0.004
  -0.10000000  0.50000000  0.40000000       0.004
  -0.00000000 -0.40000000  0.40000000       0.002
   0.10000000 -0.40000000  0.40000000       0.002
   0.20000000 -0.40000000  0.40000000       0.002
   0.30000000 -0.40000000  0.40000000       0.002
   0.40000000 -0.40000000  0.40000000       0.002
   0.50000000 -0.40000000  0.40000000       0.002
  -0.40000000 -0.40000000  0.40000000       0.002
  -0.30000000 -0.40000000  0.40000000       0.002
  -0.20000000 -0.40000000  0.40000000       0.002
  -0.10000000 -0.40000000  0.40000000       0.002
  -0.00000000  0.50000000  0.50000000       0.001
   0.10000000  0.50000000  0.50000000       0.002
   0.20000000  0.50000000  0.50000000       0.002
   0.30000000  0.50000000  0.50000000       0.002
   0.40000000  0.50000000  0.50000000       0.002
   0.50000000  0.50000000  0.50000000       0.001
 
 position of ions in fractional coordinates (direct lattice) 
   0.63949329  0.84412195  0.79537133
   0.36050671  0.15587805  0.20462867
   0.04781288  0.20327678  0.84453610
   0.95218712  0.79672322  0.15546390
   0.37975259  0.83821129  0.54154130
   0.62024741  0.16178871  0.45845870
   0.29075874  0.45736767  0.83339107
   0.70924126  0.54263233  0.16660893
   0.48542635  0.65170743  0.83371892
   0.51457365  0.34829257  0.16628108
   0.81944475  0.16739589  0.65204885
   0.18055525  0.83260411  0.34795115
 
 position of ions in cartesian coordinates  (Angst):
  -3.37063621 -2.89739803 -1.43823834
  -1.52872569 -2.00504083  0.00000000
   2.89014900 -3.36079468 -1.43823834
  -7.78951090 -1.54164418  0.00000000
  -3.30600775 -0.41532929 -1.43823834
  -1.59335415 -4.48710957 -0.00000000
   0.40756295 -3.25869105 -1.43823834
  -5.30692485 -1.64374781 -0.00000000
  -1.49146657 -3.26715160 -1.43823834
  -3.40789533 -1.63528726 -0.00000000
  -1.65338641 -6.38015425  0.00000000
  -3.24597549  1.47771539 -1.43823834
 


--------------------------------------------------------------------------------------------------------


 k-point  1 :   0.0000 0.0000 0.0000  plane waves:    3705
 k-point  2 :   0.1000 0.0000-0.0000  plane waves:    3691
 k-point  3 :   0.2000 0.0000-0.0000  plane waves:    3718
 k-point  4 :   0.3000 0.0000-0.0000  plane waves:    3716
 k-point  5 :   0.4000 0.0000-0.0000  plane waves:    3716
 k-point  6 :   0.5000 0.0000-0.0000  plane waves:    3722
 k-point  7 :  -0.0000 0.1000 0.0000  plane waves:    3692
 k-point  8 :   0.1000 0.1000-0.0000  plane waves:    3698
 k-point  9 :   0.2000 0.1000 0.0000  plane waves:    3703
 k-point 10 :   0.3000 0.1000-0.0000  plane waves:    3716
 k-point 11 :   0.4000 0.1000-0.0000  plane waves:    3711
 k-point 12 :   0.5000 0.1000-0.0000  plane waves:    3712
 k-point 13 :  -0.4000 0.1000 0.0000  plane waves:    3717
 k-point 14 :  -0.3000 0.1000 0.0000  plane waves:    3704
 k-point 15 :  -0.2000 0.1000-0.0000  plane waves:    3698
 k-point 16 :  -0.1000 0.1000 0.0000  plane waves:    3690
 k-point 17 :  -0.0000 0.2000-0.0000  plane waves:    3698
 k-point 18 :   0.1000 0.2000-0.0000  plane waves:    3697
 k-point 19 :   0.2000 0.2000-0.0000  plane waves:    3703
 k-point 20 :   0.3000 0.2000-0.0000  plane waves:    3705
 k-point 21 :   0.4000 0.2000-0.0000  plane waves:    3698
 k-point 22 :   0.5000 0.2000-0.0000  plane waves:    3704
 k-point 23 :  -0.4000 0.2000-0.0000  plane waves:    3701
 k-point 24 :  -0.3000 0.2000 0.0000  plane waves:    3697
 k-point 25 :  -0.2000 0.2000-0.0000  plane waves:    3699
 k-point 26 :  -0.1000 0.2000-0.0000  plane waves:    3701
 k-point 27 :  -0.0000 0.3000 0.0000  plane waves:    3699
 k-point 28 :   0.1000 0.3000-0.0000  plane waves:    3694
 k-point 29 :   0.2000 0.3000 0.0000  plane waves:    3694
 k-point 30 :   0.3000 0.3000-0.0000  plane waves:    3693
 k-point 31 :   0.4000 0.3000-0.0000  plane waves:    3696
 k-point 32 :   0.5000 0.3000-0.0000  plane waves:    3694
 k-point 33 :  -0.4000 0.3000 0.0000  plane waves:    3692
 k-point 34 :  -0.3000 0.3000 0.0000  plane waves:    3698
 k-point 35 :  -0.2000 0.3000 0.0000  plane waves:    3694
 k-point 36 :  -0.1000 0.3000 0.0000  plane waves:    3695
 k-point 37 :  -0.0000 0.4000-0.0000  plane waves:    3700
 k-point 38 :   0.1000 0.4000-0.0000  plane waves:    3692
 k-point 39 :   0.2000 0.4000-0.0000  plane waves:    3691
 k-point 40 :   0.3000 0.4000-0.0000  plane waves:    3686
 k-point 41 :   0.4000 0.4000-0.0000  plane waves:    3690
 k-point 42 :   0.5000 0.4000-0.0000  plane waves:    3693
 k-point 43 :  -0.4000 0.4000-0.0000  plane waves:    3699
 k-point 44 :  -0.3000 0.4000 0.0000  plane waves:    3695
 k-point 45 :  -0.2000 0.4000-0.0000  plane waves:    3685
 k-point 46 :  -0.1000 0.4000-0.0000  plane waves:    3693
 k-point 47 :  -0.0000 0.5000-0.0000  plane waves:    3694
 k-point 48 :   0.1000 0.5000-0.0000  plane waves:    3690
 k-point 49 :   0.2000 0.5000 0.0000  plane waves:    3692
 k-point 50 :   0.3000 0.5000-0.0000  plane waves:    3693
 k-point 51 :   0.4000 0.5000-0.0000  plane waves:    3691
 k-point 52 :   0.5000 0.5000-0.0000  plane waves:    3694
 k-point 53 :  -0.0000 0.1000 0.1000  plane waves:    3692
 k-point 54 :   0.1000 0.1000 0.1000  plane waves:    3693
 k-point 55 :   0.2000 0.1000 0.1000  plane waves:    3704
 k-point 56 :   0.3000 0.1000 0.1000  plane waves:    3697
 k-point 57 :   0.4000 0.1000 0.1000  plane waves:    3708
 k-point 58 :  -0.1000 0.1000 0.1000  plane waves:    3685
 k-point 59 :  -0.0000 0.2000 0.1000  plane waves:    3694
 k-point 60 :   0.1000 0.2000 0.1000  plane waves:    3692
 k-point 61 :   0.2000 0.2000 0.1000  plane waves:    3687
 k-point 62 :   0.3000 0.2000 0.1000  plane waves:    3700
 k-point 63 :   0.4000 0.2000 0.1000  plane waves:    3702
 k-point 64 :   0.5000 0.2000 0.1000  plane waves:    3689
 k-point 65 :  -0.4000 0.2000 0.1000  plane waves:    3692
 k-point 66 :  -0.3000 0.2000 0.1000  plane waves:    3695
 k-point 67 :  -0.2000 0.2000 0.1000  plane waves:    3701
 k-point 68 :  -0.1000 0.2000 0.1000  plane waves:    3704
 k-point 69 :  -0.0000 0.3000 0.1000  plane waves:    3698
 k-point 70 :   0.1000 0.3000 0.1000  plane waves:    3691
 k-point 71 :   0.2000 0.3000 0.1000  plane waves:    3690
 k-point 72 :   0.3000 0.3000 0.1000  plane waves:    3682
 k-point 73 :   0.4000 0.3000 0.1000  plane waves:    3689
 k-point 74 :   0.5000 0.3000 0.1000  plane waves:    3691
 k-point 75 :  -0.4000 0.3000 0.1000  plane waves:    3698
 k-point 76 :  -0.3000 0.3000 0.1000  plane waves:    3696
 k-point 77 :  -0.2000 0.3000 0.1000  plane waves:    3702
 k-point 78 :  -0.1000 0.3000 0.1000  plane waves:    3700
 k-point 79 :   0.0000 0.4000 0.1000  plane waves:    3691
 k-point 80 :   0.1000 0.4000 0.1000  plane waves:    3687
 k-point 81 :   0.2000 0.4000 0.1000  plane waves:    3690
 k-point 82 :   0.3000 0.4000 0.1000  plane waves:    3692
 k-point 83 :   0.4000 0.4000 0.1000  plane waves:    3687
 k-point 84 :   0.5000 0.4000 0.1000  plane waves:    3693
 k-point 85 :  -0.4000 0.4000 0.1000  plane waves:    3701
 k-point 86 :  -0.3000 0.4000 0.1000  plane waves:    3685
 k-point 87 :  -0.2000 0.4000 0.1000  plane waves:    3685
 k-point 88 :  -0.1000 0.4000 0.1000  plane waves:    3702
 k-point 89 :  -0.0000 0.5000 0.1000  plane waves:    3690
 k-point 90 :   0.1000 0.5000 0.1000  plane waves:    3689
 k-point 91 :   0.2000 0.5000 0.1000  plane waves:    3683
 k-point 92 :   0.3000 0.5000 0.1000  plane waves:    3689
 k-point 93 :   0.4000 0.5000 0.1000  plane waves:    3689
 k-point 94 :   0.5000 0.5000 0.1000  plane waves:    3681
 k-point 95 :  -0.4000 0.5000 0.1000  plane waves:    3689
 k-point 96 :  -0.3000 0.5000 0.1000  plane waves:    3695
 k-point 97 :  -0.2000 0.5000 0.1000  plane waves:    3688
 k-point 98 :  -0.1000 0.5000 0.1000  plane waves:    3684
 k-point 99 :   0.0000-0.4000 0.1000  plane waves:    3691
 k-point ** :   0.1000-0.4000 0.1000  plane waves:    3693
 k-point ** :   0.2000-0.4000 0.1000  plane waves:    3694
 k-point ** :   0.3000-0.4000 0.1000  plane waves:    3694
 k-point ** :   0.4000-0.4000 0.1000  plane waves:    3693
 k-point ** :   0.5000-0.4000 0.1000  plane waves:    3688
 k-point ** :  -0.4000-0.4000 0.1000  plane waves:    3697
 k-point ** :  -0.3000-0.4000 0.1000  plane waves:    3697
 k-point ** :  -0.2000-0.4000 0.1000  plane waves:    3686
 k-point ** :  -0.1000-0.4000 0.1000  plane waves:    3692
 k-point ** :   0.0000-0.3000 0.1000  plane waves:    3700
 k-point ** :   0.1000-0.3000 0.1000  plane waves:    3687
 k-point ** :   0.2000-0.3000 0.1000  plane waves:    3698
 k-point ** :   0.3000-0.3000 0.1000  plane waves:    3701
 k-point ** :   0.4000-0.3000 0.1000  plane waves:    3700
 k-point ** :   0.5000-0.3000 0.1000  plane waves:    3708
 k-point ** :  -0.4000-0.3000 0.1000  plane waves:    3695
 k-point ** :  -0.3000-0.3000 0.1000  plane waves:    3706
 k-point ** :  -0.2000-0.3000 0.1000  plane waves:    3703
 k-point ** :  -0.1000-0.3000 0.1000  plane waves:    3701
 k-point ** :  -0.0000-0.2000 0.1000  plane waves:    3697
 k-point ** :   0.1000-0.2000 0.1000  plane waves:    3696
 k-point ** :   0.2000-0.2000 0.1000  plane waves:    3704
 k-point ** :   0.3000-0.2000 0.1000  plane waves:    3712
 k-point ** :   0.4000-0.2000 0.1000  plane waves:    3707
 k-point ** :   0.5000-0.2000 0.1000  plane waves:    3707
 k-point ** :  -0.4000-0.2000 0.1000  plane waves:    3709
 k-point ** :  -0.3000-0.2000 0.1000  plane waves:    3708
 k-point ** :  -0.2000-0.2000 0.1000  plane waves:    3710
 k-point ** :  -0.1000-0.2000 0.1000  plane waves:    3703
 k-point ** :  -0.0000-0.1000 0.1000  plane waves:    3683
 k-point ** :   0.1000-0.1000 0.1000  plane waves:    3691
 k-point ** :   0.2000-0.1000 0.1000  plane waves:    3698
 k-point ** :   0.3000-0.1000 0.1000  plane waves:    3701
 k-point ** :   0.4000-0.1000 0.1000  plane waves:    3712
[...]
      1     -17.5680      1.00000
      2     -17.5254      1.00000
      3     -16.7518      1.00000
      4     -16.2761      1.00000
      5     -15.8704      1.00000
      6     -15.8141      1.00000
      7     -15.7797      1.00000
      8     -15.7358      1.00000
      9      -5.8709      1.00000
     10      -5.6232      1.00000
     11      -4.8574      1.00000
     12      -4.6611      1.00000
     13      -4.1901      1.00000
     14      -4.1343      1.00000
     15      -4.0853      1.00000
     16      -4.0782      1.00000
     17      -3.5907      1.00000
     18      -3.4057      1.00000
     19      -3.3631      1.00000
     20      -2.7692      1.00000
     21      -2.6332      1.00000
     22      -2.3863      1.00000
     23      -2.1527      1.00000
     24      -2.0096      1.00000
     25      -1.8697      1.00000
     26      -1.2907      1.00000
     27      -1.2156      1.00000
     28      -1.0564      1.00000
     29      -0.7794      1.00000
     30      -0.6177      1.00000
     31      -0.5222      1.00000
     32      -0.1342      1.00000
     33      -0.1088      1.00000
     34       0.0891      1.00000
     35       0.2153      1.00000
     36       0.2888      1.00000
     37       0.6830      1.00000
     38       0.8046      1.00000
     39       2.6337      0.00000
     40       3.2138      0.00000
     41       3.3741      0.00000
     42       3.7211      0.00000
     43       3.8058      0.00000
     44       4.0854      0.00000
     45       4.2746      0.00000
     46       4.6147      0.00000
     47       4.8652      0.00000
     48       5.0465      0.00000

 k-point 280 :       0.3000    0.5000    0.5000
  band No.  band energies     occupation 
      1     -17.5345      1.00000
      2     -17.5162      1.00000
      3     -16.8703      1.00000
      4     -16.2031      1.00000
      5     -15.8692      1.00000
      6     -15.8079      1.00000
      7     -15.7786      1.00000
      8     -15.7382      1.00000
      9      -5.9168      1.00000
     10      -5.5889      1.00000
     11      -4.8366      1.00000
     12      -4.7085      1.00000
     13      -4.1947      1.00000
     14      -4.1678      1.00000
     15      -4.0806      1.00000
     16      -3.9850      1.00000
     17      -3.5962      1.00000
     18      -3.4491      1.00000
     19      -3.4069      1.00000
     20      -2.7049      1.00000
     21      -2.6167      1.00000
     22      -2.3465      1.00000
     23      -2.1439      1.00000
     24      -2.0001      1.00000
     25      -1.8730      1.00000
     26      -1.3341      1.00000
     27      -1.2499      1.00000
     28      -1.0388      1.00000
     29      -0.8916      1.00000
     30      -0.5799      1.00000
     31      -0.4709      1.00000
     32      -0.1093      1.00000
     33      -0.0978      1.00000
     34       0.0602      1.00000
     35       0.2290      1.00000
     36       0.3958      1.00000
     37       0.5990      1.00000
     38       0.7864      1.00000
     39       2.6382      0.00000
     40       3.2133      0.00000
     41       3.3482      0.00000
     42       3.7108      0.00000
     43       3.8340      0.00000
     44       4.0690      0.00000
     45       4.2623      0.00000
     46       4.6255      0.00000
     47       4.8586      0.00000
     48       5.0859      0.00000

 k-point 281 :       0.4000    0.5000    0.5000
  band No.  band energies     occupation 
      1     -17.5285      1.00000
      2     -17.4794      1.00000
      3     -16.9604      1.00000
      4     -16.1590      1.00000
      5     -15.8681      1.00000
      6     -15.8033      1.00000
      7     -15.7756      1.00000
      8     -15.7414      1.00000
      9      -5.9488      1.00000
     10      -5.5662      1.00000
     11      -4.8317      1.00000
     12      -4.7218      1.00000
     13      -4.1998      1.00000
     14      -4.1982      1.00000
     15      -4.0771      1.00000
     16      -3.9145      1.00000
     17      -3.6005      1.00000
     18      -3.5150      1.00000
     19      -3.4078      1.00000
     20      -2.6518      1.00000
     21      -2.6035      1.00000
     22      -2.3123      1.00000
     23      -2.1357      1.00000
     24      -1.9953      1.00000
     25      -1.8860      1.00000
     26      -1.3688      1.00000
     27      -1.2928      1.00000
     28      -1.0570      1.00000
     29      -0.9194      1.00000
     30      -0.5482      1.00000
     31      -0.3774      1.00000
     32      -0.1466      1.00000
     33      -0.0909      1.00000
     34       0.0362      1.00000
     35       0.2695      1.00000
     36       0.4392      1.00000
     37       0.5242      1.00000
     38       0.7849      1.00000
     39       2.6439      0.00000
     40       3.2129      0.00000
     41       3.3248      0.00000
     42       3.7026      0.00000
     43       3.8584      0.00000
     44       4.0575      0.00000
     45       4.2504      0.00000
     46       4.6329      0.00000
     47       4.8605      0.00000
     48       5.0819      0.00000

 k-point 282 :       0.5000    0.5000    0.5000
  band No.  band energies     occupation 
      1     -17.5279      1.00000
      2     -17.4604      1.00000
      3     -16.9961      1.00000
      4     -16.1445      1.00000
      5     -15.8676      1.00000
      6     -15.8018      1.00000
      7     -15.7735      1.00000
      8     -15.7432      1.00000
      9      -5.9602      1.00000
     10      -5.5583      1.00000
     11      -4.8343      1.00000
     12      -4.7198      1.00000
     13      -4.2134      1.00000
     14      -4.1995      1.00000
     15      -4.0758      1.00000
     16      -3.8870      1.00000
     17      -3.6022      1.00000
     18      -3.5409      1.00000
     19      -3.4082      1.00000
     20      -2.6303      1.00000
     21      -2.5984      1.00000
     22      -2.2983      1.00000
     23      -2.1323      1.00000
     24      -1.9944      1.00000
     25      -1.8938      1.00000
     26      -1.3821      1.00000
     27      -1.3114      1.00000
     28      -1.0768      1.00000
     29      -0.9128      1.00000
     30      -0.5356      1.00000
     31      -0.2885      1.00000
     32      -0.2172      1.00000
     33      -0.0891      1.00000
     34       0.0271      1.00000
     35       0.3169      1.00000
     36       0.3993      1.00000
     37       0.5179      1.00000
     38       0.7881      1.00000
     39       2.6466      0.00000
     40       3.2127      0.00000
     41       3.3152      0.00000
     42       3.6994      0.00000
     43       3.8685      0.00000
     44       4.0534      0.00000
     45       4.2456      0.00000
     46       4.6357      0.00000
     47       4.8709      0.00000
     48       5.1304      0.00000


--------------------------------------------------------------------------------------------------------


 soft charge-density along one line, spin component           1
         0         1         2         3         4         5         6         7         8         9
 total charge-density along one line
 
 soft charge-density along one line, spin component           2
         0         1         2         3         4         5         6         7         8         9
 total charge-density along one line
 
 pseudopotential strength for first ion, spin component:           1
 12.706 -15.505  -0.052  -0.000  -0.041   0.066   0.000   0.051
-15.505  18.944   0.067   0.000   0.052  -0.084  -0.000  -0.066
 -0.052   0.067  -9.111   0.000   0.014  11.074  -0.000  -0.019
 -0.000   0.000   0.000  -9.140   0.000  -0.000  11.113  -0.000
 -0.041   0.052   0.014   0.000  -9.056  -0.019  -0.000  10.996
  0.066  -0.084  11.074  -0.000  -0.019 -13.335   0.000   0.026
  0.000  -0.000  -0.000  11.113  -0.000   0.000 -13.389   0.000
  0.051  -0.066  -0.019  -0.000  10.996   0.026   0.000 -13.225
 pseudopotential strength for first ion, spin component:           2
 12.689 -15.483  -0.047  -0.000  -0.043   0.059   0.000   0.054
-15.483  18.915   0.060   0.000   0.055  -0.075  -0.000  -0.069
 -0.047   0.060  -9.064   0.000   0.023  11.007  -0.000  -0.031
 -0.000   0.000   0.000  -9.069   0.000  -0.000  11.013  -0.000
 -0.043   0.055   0.023   0.000  -9.125  -0.031  -0.000  11.093
  0.059  -0.075  11.007  -0.000  -0.031 -13.240   0.000   0.042
  0.000  -0.000  -0.000  11.013  -0.000   0.000 -13.247   0.000
  0.054  -0.069  -0.031  -0.000  11.093   0.042   0.000 -13.362
 total augmentation occupancy for first ion, spin component:           1
  2.000   0.000   0.000   0.000   0.000   0.000   0.000   0.000
  0.000   0.000   0.000   0.000   0.000   0.000   0.000   0.000
  0.000   0.000   1.333   0.000   0.000   0.000   0.000   0.000
  0.000   0.000   0.000   1.333   0.000   0.000   0.000   0.000
  0.000   0.000   0.000   0.000   1.333   0.000   0.000   0.000
  0.000   0.000   0.000   0.000   0.000   0.000   0.000   0.000
  0.000   0.000   0.000   0.000   0.000   0.000   0.000   0.000
  0.000   0.000   0.000   0.000   0.000   0.000   0.000   0.000
 total augmentation occupancy for first ion, spin component:           2
  0.000   0.000   0.000   0.000   0.000   0.000   0.000   0.000
  0.000   0.000   0.000   0.000   0.000   0.000   0.000   0.000
  0.000   0.000   0.000   0.000   0.000   0.000   0.000   0.000
  0.000   0.000   0.000   0.000   0.000   0.000   0.000   0.000
  0.000   0.000   0.000   0.000   0.000   0.000   0.000   0.000
  0.000   0.000   0.000   0.000   0.000   0.000   0.000   0.000
  0.000   0.000   0.000   0.000   0.000   0.000   0.000   0.000
  0.000   0.000   0.000   0.000   0.000   0.000   0.000   0.000


------------------------ aborting loop because EDIFF is reached ----------------------------------------


 


 total charge     
 
# of ion     s       p       d       tot
----------------------------------------
  1        1.581   3.386   0.000   4.968
  2        1.581   3.386   0.000   4.968
  3        1.581   3.387   0.000   4.968
  4        1.581   3.387   0.000   4.968
  5        1.561   3.457   0.000   5.018
  6        1.561   3.457   0.000   5.018
  7        1.562   3.456   0.000   5.018
  8        1.562   3.456   0.000   5.018
  9        0.365   0.579   4.827   5.771
 10        0.365   0.579   4.827   5.771
 11        0.364   0.579   4.828   5.771
 12        0.364   0.579   4.828   5.771
------------------------------------------------
tot       14.027  29.690  19.311  63.028
 


 magnetization (x)
 
# of ion     s       p       d       tot
----------------------------------------
  1       -0.000   0.031   0.000   0.031
  2        0.000  -0.031   0.000  -0.031
  3        0.001  -0.037   0.000  -0.036
  4       -0.001   0.037   0.000   0.036
  5        0.000   0.003   0.000   0.003
  6       -0.000  -0.003   0.000  -0.003
  7       -0.001  -0.020   0.000  -0.022
  8        0.001   0.020   0.000   0.022
  9        0.017   0.027   3.013   3.057
 10       -0.017  -0.027  -3.013  -3.057
 11       -0.017  -0.027  -3.023  -3.068
 12        0.017   0.027   3.023   3.068
------------------------------------------------
tot        0.000  -0.000   0.000  -0.000
 
    CHARGE:  cpu time    1.00: real time    1.00
    FORLOC:  cpu time    0.00: real time    0.00
    FORNL :  cpu time    2.89: real time    2.89
    STRESS:  cpu time    0.66: real time    0.66
    FORCOR:  cpu time    0.03: real time    0.04
    FORHAR:  cpu time    0.00: real time    0.00
 only isotrope contributions calculated
  for stress because ISIF=1 (only pressure is correct)

  FORCE on cell =-STRESS in cart. coord.  units (eV):
  Direction    XX          YY          ZZ          XY          YZ          ZX
  --------------------------------------------------------------------------------------
  Alpha Z   276.94297   276.94297   276.94297
  Ewald   -1615.50121 -1635.83100    14.86309    11.52657     0.00000     0.00000
  Hartree   323.94384   303.23205  1474.75217     8.94635     0.00000     0.00000
  E(xc)    -369.72621  -369.75687  -370.31912     0.00761    -0.00011    -0.00010
  Local     144.19463   185.15792 -2601.45156   -20.25739    -0.00044    -0.00046
  n-local  -258.02648  -258.02648  -258.02648     0.00000     0.00000     0.00000
  augment   174.89668   174.89668   174.89668     0.00000     0.00000     0.00000
  Kinetic  1324.18443  1324.13456  1286.18858    -0.24149     0.22683    -0.07223
  Fock        0.00000     0.00000     0.00000     0.00000     0.00000     0.00000
  -------------------------------------------------------------------------------------
  Total       0.90866     0.74984    -2.15366    -0.01836    -0.00000     0.00000
  in kB      10.59429     8.74261   -25.11016    -0.21410    -0.00000     0.00000
  external pressure =       -1.92 kB  Pullay stress =        0.00 kB


 VOLUME and BASIS-vectors are now :
 -----------------------------------------------------------------------------
  energy-cutoff  :      520.00
  volume of cell :      137.42
      direct lattice vectors                 reciprocal lattice vectors
    -4.899361902 -4.902438859  1.438238339    -0.102054614 -0.101989546  0.000000000
    -4.872290406  4.875398874 -1.438238339    -0.102337622  0.000283338 -0.347647526
     4.872290406 -4.875398874 -1.438238339     0.000283008 -0.102272884 -0.347647526

  length of vectors
     7.078572125  7.041111950  7.041111950     0.144281016  0.362397394  0.362379118


 FORCES acting on ions
    electron-ion (+dipol)            ewald-force                    non-local-force                 convergence-correction
 -----------------------------------------------------------------------------------------------
   0.204E+03 0.267E+03 -.289E-05   -.221E+03 -.287E+03 -.398E-11   0.168E+02 0.199E+02 0.839E-16   0.186E-02 -.225E-01 -.494E-04
   -.204E+03 -.267E+03 0.289E-05   0.221E+03 0.287E+03 0.397E-11   -.168E+02 -.199E+02 -.175E-15   -.186E-02 0.225E-01 0.494E-04
   -.266E+03 0.210E+03 -.114E-04   0.286E+03 -.227E+03 0.383E-11   -.201E+02 0.166E+02 0.344E-16   0.170E-01 -.137E-01 0.309E-04
   0.266E+03 -.210E+03 0.114E-04   -.286E+03 0.227E+03 -.383E-11   0.201E+02 -.166E+02 -.394E-16   -.170E-01 0.137E-01 -.309E-04
   -.121E+03 -.412E+02 0.268E-04   0.123E+03 0.456E+02 -.427E-11   -.184E+01 -.439E+01 -.884E-17   0.271E-01 0.381E-02 -.184E-02
   0.121E+03 0.412E+02 -.268E-04   -.123E+03 -.456E+02 0.426E-11   0.184E+01 0.439E+01 0.134E-16   -.271E-01 -.381E-02 0.184E-02
   0.423E+02 -.128E+03 -.209E-04   -.464E+02 0.132E+03 -.333E-13   0.416E+01 -.455E+01 -.278E-16   0.121E-01 0.134E-01 0.578E-06
   -.423E+02 0.128E+03 0.209E-04   0.464E+02 -.132E+03 0.373E-13   -.416E+01 0.455E+01 -.214E-18   -.121E-01 -.134E-01 -.578E-06
   0.524E+01 -.292E+02 0.133E-05   -.460E+01 0.287E+02 -.626E-11   -.600E+00 0.495E+00 -.141E-17   -.257E-01 0.138E-01 -.304E-03
   -.524E+01 0.292E+02 -.133E-05   0.460E+01 -.287E+02 0.628E-11   0.600E+00 -.495E+00 -.852E-18   0.257E-01 -.138E-01 0.304E-03
   0.353E+02 -.777E+00 -.223E-05   -.347E+02 0.118E+01 0.184E-11   -.528E+00 -.340E+00 -.193E-17   -.169E-01 -.520E-02 0.818E-04
   -.353E+02 0.777E+00 0.223E-05   0.347E+02 -.118E+01 -.182E-11   0.528E+00 0.340E+00 -.291E-17   0.169E-01 0.520E-02 -.818E-04
 -----------------------------------------------------------------------------------------------
   -.725E-12 -.268E-11 0.189E-11   0.568E-13 -.642E-13 0.158E-13   0.344E-14 0.361E-14 -.127E-15   -.246E-10 0.234E-10 -.204E-11
 
 
 POSITION                                       TOTAL-FORCE (eV/Angst)
 -----------------------------------------------------------------------------------
     -3.37064     -2.89740     -1.43824        -0.000106      0.008721     -0.000000
     -1.52873     -2.00504      0.00000         0.000106     -0.008721      0.000000
      2.89015     -3.36079     -1.43824        -0.010967     -0.019057      0.000000
     -7.78951     -1.54164      0.00000         0.010967      0.019057      0.000000
     -3.30601     -0.41533     -1.43824        -0.038235      0.038491     -0.000000
     -1.59335     -4.48711     -0.00000         0.038235     -0.038491      0.000000
      0.40756     -3.25869     -1.43824        -0.004930      0.019984     -0.000000
     -5.30692     -1.64375     -0.00000         0.004930     -0.019984     -0.000000
     -1.49147     -3.26715     -1.43824         0.021321      0.022094      0.000000
     -3.40790     -1.63529     -0.00000        -0.021321     -0.022094      0.000000
     -1.65339     -6.38015      0.00000         0.014053      0.060362     -0.000000
     -3.24598      1.47772     -1.43824        -0.014053     -0.060362      0.000000
 -----------------------------------------------------------------------------------
    total drift:                               -0.000000      0.000000     -0.000000


--------------------------------------------------------------------------------------------------------



  FREE ENERGIE OF THE ION-ELECTRON SYSTEM (eV)
  ---------------------------------------------------
  free  energy   TOTEN  =       -89.46664353 eV

  energy  without entropy=      -89.46664353  energy(sigma->0) =      -89.46664353
 


--------------------------------------------------------------------------------------------------------


    POTLOK:  cpu time    0.04: real time    0.04


--------------------------------------------------------------------------------------------------------


     LOOP+:  cpu time  169.49: real time  171.70
    4ORBIT:  cpu time    0.00: real time    0.00
 


 total charge     
 
# of ion     s       p       d       tot
----------------------------------------
  1        1.581   3.386   0.000   4.968
  2        1.581   3.386   0.000   4.968
  3        1.581   3.387   0.000   4.968
  4        1.581   3.387   0.000   4.968
  5        1.561   3.457   0.000   5.018
  6        1.561   3.457   0.000   5.018
  7        1.562   3.456   0.000   5.018
  8        1.562   3.456   0.000   5.018
  9        0.365   0.579   4.827   5.771
 10        0.365   0.579   4.827   5.771
 11        0.364   0.579   4.828   5.771
 12        0.364   0.579   4.828   5.771
------------------------------------------------
tot       14.027  29.690  19.311  63.028
 


 magnetization (x)
 
# of ion     s       p       d       tot
----------------------------------------
  1       -0.000   0.031   0.000   0.031
  2        0.000  -0.031   0.000  -0.031
  3        0.001  -0.037   0.000  -0.036
  4       -0.001   0.037   0.000   0.036
  5        0.000   0.003   0.000   0.003
  6       -0.000  -0.003   0.000  -0.003
  7       -0.001  -0.020   0.000  -0.022
  8        0.001   0.020   0.000   0.022
  9        0.017   0.027   3.013   3.057
 10       -0.017  -0.027  -3.013  -3.057
 11       -0.017  -0.027  -3.023  -3.068
 12        0.017   0.027   3.023   3.068
------------------------------------------------
tot        0.000  -0.000   0.000  -0.000
 
 BZINTS: Fermi energy:  1.006878; 76.000000 electrons
         Band energy:-397.300295;  BLOECHL correction:  0.000000

 total amount of memory used by VASP on root node   167447. kBytes
========================================================================

   base      :      30000. kBytes
   nonl-proj :      78802. kBytes
   fftplans  :       1116. kBytes
   grid      :       2859. kBytes
   one-center:         93. kBytes
   wavefun   :      54577. kBytes
 
  
  
 General timing and accounting informations for this job:
 ========================================================
  
                  Total CPU time used (sec):      183.344
                            User time (sec):      181.707
                          System time (sec):        1.637
                         Elapsed time (sec):      189.824
  
                   Maximum memory used (kb):      324268.
                   Average memory used (kb):           0.
  
                          Minor page faults:        19358
                          Major page faults:            1
                 Voluntary context switches:         8123
